
                                 *****************
                                 * O   R   C   A *
                                 *****************

           --- An Ab Initio, DFT and Semiempirical electronic structure package ---

                  #######################################################
                  #                        -***-                        #
                  #          Department of theory and spectroscopy      #
                  #               Directorship: Frank Neese             #
                  #        Max Planck Institute fuer Kohlenforschung    #
                  #                Kaiser Wilhelm Platz 1               #
                  #                 D-45470 Muelheim/Ruhr               #
                  #                      Germany                        #
                  #                                                     #
                  #                  All rights reserved                #
                  #                        -***-                        #
                  #######################################################


                         Program Version 4.2.0 -  RELEASE  -


 With contributions from (in alphabetic order):
   Daniel Aravena         : Magnetic Suceptibility
   Michael Atanasov       : Ab Initio Ligand Field Theory (pilot matlab implementation)
   Alexander A. Auer      : GIAO ZORA, VPT2
   Ute Becker             : Parallelization
   Giovanni Bistoni       : ED, misc. LED, open-shell LED, HFLED
   Martin Brehm           : Molecular dynamics
   Dmytro Bykov           : SCF Hessian
   Vijay G. Chilkuri      : MRCI spin determinant printing, contributions to CSF-ICE
   Dipayan Datta          : RHF DLPNO-CCSD density
   Achintya Kumar Dutta   : EOM-CC, STEOM-CC
   Dmitry Ganyushin       : Spin-Orbit,Spin-Spin,Magnetic field MRCI
   Miquel Garcia          : C-PCM Hessian, Gaussian charge scheme
   Yang Guo               : DLPNO-NEVPT2, CIM, IAO-localization
   Andreas Hansen         : Spin unrestricted coupled pair/coupled cluster methods
   Benjamin Helmich-Paris : CASSCF linear response (MC-RPA)
   Lee Huntington         : MR-EOM, pCC
   Robert Izsak           : Overlap fitted RIJCOSX, COSX-SCS-MP3, EOM
   Christian Kollmar      : KDIIS, OOCD, Brueckner-CCSD(T), CCSD density
   Simone Kossmann        : Meta GGA functionals, TD-DFT gradient, OOMP2, MP2 Hessian
   Martin Krupicka        : AUTO-CI
   Lucas Lang             : DCDCAS
   Dagmar Lenk            : GEPOL surface, SMD
   Dimitrios Liakos       : Extrapolation schemes; Compound Job, initial MDCI parallelization
   Dimitrios Manganas     : Further ROCIS development; embedding schemes
   Dimitrios Pantazis     : SARC Basis sets
   Taras Petrenko         : DFT Hessian,TD-DFT gradient, ASA, ECA, R-Raman, ABS, FL, XAS/XES, NRVS
   Peter Pinski           : DLPNO-MP2, DLPNO-MP2 Gradient
   Christoph Reimann      : Effective Core Potentials
   Marius Retegan         : Local ZFS, SOC
   Christoph Riplinger    : Optimizer, TS searches, QM/MM, DLPNO-CCSD(T), (RO)-DLPNO pert. Triples
   Tobias Risthaus        : Range-separated hybrids, TD-DFT gradient, RPA, STAB
   Michael Roemelt        : Original ROCIS implementation
   Masaaki Saitow         : Open-shell DLPNO-CCSD energy and density
   Barbara Sandhoefer     : DKH picture change effects
   Avijit Sen             : IP-ROCIS
   Kantharuban Sivalingam : CASSCF convergence, NEVPT2, FIC-MRCI
   Bernardo de Souza      : ESD, SOC TD-DFT
   Georgi Stoychev        : AutoAux, RI-MP2 NMR
   Willem Van den Heuvel  : Paramagnetic NMR
   Boris Wezisla          : Elementary symmetry handling
   Frank Wennmohs         : Technical directorship


 We gratefully acknowledge several colleagues who have allowed us to
 interface, adapt or use parts of their codes:
   Stefan Grimme, W. Hujo, H. Kruse,             : VdW corrections, initial TS optimization,
                  C. Bannwarth                     DFT functionals, gCP, sTDA/sTD-DF
   Ed Valeev, F. Pavosevic, A. Kumar             : LibInt (2-el integral package), F12 methods
   Garnet Chan, S. Sharma, J. Yang, R. Olivares  : DMRG
   Ulf Ekstrom                                   : XCFun DFT Library
   Mihaly Kallay                                 : mrcc  (arbitrary order and MRCC methods)
   Andreas Klamt, Michael Diedenhofen            : otool_cosmo (COSMO solvation model)
   Jiri Pittner, Ondrej Demel                    : Mk-CCSD
   Frank Weinhold                                : gennbo (NPA and NBO analysis)
   Christopher J. Cramer and Donald G. Truhlar   : smd solvation model
   Lars Goerigk                                  : TD-DFT with DH, B97 family of functionals
   V. Asgeirsson, H. Jonsson                     : NEB implementation
   FAccTs GmbH                                   : IRC, NEB, NEB-TS, Multilevel, MM, QM/MM, CI optimization
   S Lehtola, MJT Oliveira, MAL Marques          : LibXC Library


 Your calculation uses the libint2 library for the computation of 2-el integrals
 For citations please refer to: http://libint.valeyev.net

 Your ORCA version has been built with support for libXC version: 4.2.3
 For citations please refer to: https://tddft.org/programs/libxc/

 This ORCA versions uses:
   CBLAS   interface :  Fast vector & matrix operations
   LAPACKE interface :  Fast linear algebra routines
   SCALAPACK package :  Parallel linear algebra routines


Your calculation utilizes the atom-pairwise dispersion correction
with the Becke-Johnson damping scheme (D3BJ)
Cite in your paper:
S.Grimme, S.Ehrlich, L.Goerigk, J Comput Chem, (2011), 32, 1456–1465 
S.Grimme, J.Antony, S.Ehrlich and H.Krieg, J.Chem.Phys., 132, (2010), 154104 
   

----- Orbital basis set information -----
Your calculation utilizes the basis: def2-SVP
   F. Weigend and R. Ahlrichs, Phys. Chem. Chem. Phys. 7, 3297 (2005).

----- AuxJ basis set information -----
Your calculation utilizes the auxiliary basis: def2/J
   F. Weigend, Phys. Chem. Chem. Phys. 8, 1057 (2006).

================================================================================
                                        WARNINGS
                       Please study these warnings very carefully!
================================================================================


INFO   : the flag for use of LIBINT has been found!

================================================================================
                                       INPUT FILE
================================================================================
NAME = /scratch/kacsizi/projects/swoose/structure_preparation/swoose/test/preparation_data/glutamine/reference_data/0/non_ref_state/7b05f8bb-c5fc-462e-95f7-5ec86685099c/orca_calc.inp
|  1> ! pbe d3bj def2-SVP
|  2> ! RHF AllowRHF
|  3> ! AnFreq
|  4> %maxcore 256
|  5> %pal
|  6> nprocs 4
|  7> end
|  8> %output
|  9> print[P_Hirshfeld] 1
| 10> end
| 11> %SCF
| 12> TolE 1e-08
| 13> MaxIter 100
| 14> end
| 15> # Orca calculation created by SCINE
| 16> *xyz -2 1
| 17> N      1.0079649974   -0.5115172739    3.2761899759
| 18> C      0.3247886751   -0.5760133480    1.9945708755
| 19> C      1.2438017957    0.1405184153    0.8950280924
| 20> O      0.9755656579   -0.0839783132   -0.3098818088
| 21> C     -1.0559979993    0.1042216427    2.1918488994
| 22> C     -2.0376488343    0.1668179042    0.9871295476
| 23> C     -2.5718650718   -1.2605911056    0.5381230272
| 24> O     -3.7318426246   -1.5415890277    0.9925986271
| 25> O     -1.8385549156   -1.9750381774   -0.1903655181
| 26> O      2.1678231071    0.8822538731    1.3619836034
| 27> H      0.1677926974   -1.6327137315    1.6644283766
| 28> H     -1.6199511438   -0.4189604865    3.0003636002
| 29> H     -0.7189935755    1.1455435143    2.4071209543
| 30> H     -2.9441486834    0.7167881969    1.3136244837
| 31> H     -1.4485497936    0.5848080066    0.1435991577
| 32> H      2.0201472419   -0.4438755483    3.2667178248
| 33> H      0.4946475161   -0.5002675725    4.1528020081
| 34> *
| 35> 
| 36>                          ****END OF INPUT****
================================================================================

                       ****************************
                       * Single Point Calculation *
                       ****************************

---------------------------------
CARTESIAN COORDINATES (ANGSTROEM)
---------------------------------
  N      1.007965   -0.511517    3.276190
  C      0.324789   -0.576013    1.994571
  C      1.243802    0.140518    0.895028
  O      0.975566   -0.083978   -0.309882
  C     -1.055998    0.104222    2.191849
  C     -2.037649    0.166818    0.987130
  C     -2.571865   -1.260591    0.538123
  O     -3.731843   -1.541589    0.992599
  O     -1.838555   -1.975038   -0.190366
  O      2.167823    0.882254    1.361984
  H      0.167793   -1.632714    1.664428
  H     -1.619951   -0.418960    3.000364
  H     -0.718994    1.145544    2.407121
  H     -2.944149    0.716788    1.313624
  H     -1.448550    0.584808    0.143599
  H      2.020147   -0.443876    3.266718
  H      0.494648   -0.500268    4.152802

----------------------------
CARTESIAN COORDINATES (A.U.)
----------------------------
  NO LB      ZA    FRAG     MASS         X           Y           Z
   0 N     7.0000    0    14.007    1.904778   -0.966628    6.191102
   1 C     6.0000    0    12.011    0.613762   -1.088507    3.769193
   2 C     6.0000    0    12.011    2.350445    0.265541    1.691358
   3 O     8.0000    0    15.999    1.843552   -0.158696   -0.585592
   4 C     6.0000    0    12.011   -1.995547    0.196950    4.141994
   5 C     6.0000    0    12.011   -3.850598    0.315240    1.865405
   6 C     6.0000    0    12.011   -4.860121   -2.382172    1.016905
   7 O     8.0000    0    15.999   -7.052161   -2.913181    1.875740
   8 O     8.0000    0    15.999   -3.474365   -3.732281   -0.359739
   9 O     8.0000    0    15.999    4.096592    1.667218    2.573776
  10 H     1.0000    0     1.008    0.317082   -3.085382    3.145314
  11 H     1.0000    0     1.008   -3.061264   -0.791721    5.669866
  12 H     1.0000    0     1.008   -1.358701    2.164764    4.548799
  13 H     1.0000    0     1.008   -5.563635    1.354533    2.482391
  14 H     1.0000    0     1.008   -2.737362    1.105127    0.271363
  15 H     1.0000    0     1.008    3.817525   -0.838803    6.173202
  16 H     1.0000    0     1.008    0.934748   -0.945369    7.847658

--------------------------------
INTERNAL COORDINATES (ANGSTROEM)
--------------------------------
 N      0   0   0     0.000000000000     0.00000000     0.00000000
 C      1   0   0     1.453766538835     0.00000000     0.00000000
 C      2   1   0     1.602185137717   108.39799903     0.00000000
 O      3   2   1     1.254654245894   117.15595997   163.85422896
 C      2   1   3     1.551840875054   106.65555339   237.23086676
 C      5   2   1     1.555283051541   118.73577444   181.10730898
 C      6   5   2     1.588864476609   113.26325504    66.55996644
 O      7   6   5     1.277127959967   113.73360406    98.87910620
 O      7   6   5     1.256532516182   118.58264503   279.35318065
 O      3   2   1     1.273591112772   115.15073918   343.64110643
 H      2   1   3     1.118149143488   111.60489783   118.19032610
 H      5   2   1     1.116001214567   109.64778426   301.89952427
 H      5   2   1     1.115466395529    99.49258501    64.90267886
 H      6   5   2     1.109417974692   107.92186029   181.98804149
 H      6   5   2     1.110539024142   105.58668695   309.10690879
 H      1   2   3     1.014484115583   117.61938692   333.87198817
 H      1   2   3     1.015908483766   121.58407863   151.70497249

---------------------------
INTERNAL COORDINATES (A.U.)
---------------------------
 N      0   0   0     0.000000000000     0.00000000     0.00000000
 C      1   0   0     2.747220621056     0.00000000     0.00000000
 C      2   1   0     3.027691126123   108.39799903     0.00000000
 O      3   2   1     2.370952917500   117.15595997   163.85422896
 C      2   1   3     2.932554257276   106.65555339   237.23086676
 C      5   2   1     2.939059028142   118.73577444   181.10730898
 C      6   5   2     3.002518724706   113.26325504    66.55996644
 O      7   6   5     2.413422082311   113.73360406    98.87910620
 O      7   6   5     2.374502333951   118.58264503   279.35318065
 O      3   2   1     2.406738409736   115.15073918   343.64110643
 H      2   1   3     2.112995658071   111.60489783   118.19032610
 H      5   2   1     2.108936660655   109.64778426   301.89952427
 H      5   2   1     2.107925999142    99.49258501    64.90267886
 H      6   5   2     2.096496140218   107.92186029   181.98804149
 H      6   5   2     2.098614616661   105.58668695   309.10690879
 H      1   2   3     1.917097145665   117.61938692   333.87198817
 H      1   2   3     1.919788811445   121.58407863   151.70497249

---------------------
BASIS SET INFORMATION
---------------------
There are 4 groups of distinct atoms

 Group   1 Type N   : 7s4p1d contracted to 3s2p1d pattern {511/31/1}
 Group   2 Type C   : 7s4p1d contracted to 3s2p1d pattern {511/31/1}
 Group   3 Type O   : 7s4p1d contracted to 3s2p1d pattern {511/31/1}
 Group   4 Type H   : 4s1p contracted to 2s1p pattern {31/1}

Atom   0N    basis set group =>   1
Atom   1C    basis set group =>   2
Atom   2C    basis set group =>   2
Atom   3O    basis set group =>   3
Atom   4C    basis set group =>   2
Atom   5C    basis set group =>   2
Atom   6C    basis set group =>   2
Atom   7O    basis set group =>   3
Atom   8O    basis set group =>   3
Atom   9O    basis set group =>   3
Atom  10H    basis set group =>   4
Atom  11H    basis set group =>   4
Atom  12H    basis set group =>   4
Atom  13H    basis set group =>   4
Atom  14H    basis set group =>   4
Atom  15H    basis set group =>   4
Atom  16H    basis set group =>   4
---------------------------------
AUXILIARY/J BASIS SET INFORMATION
---------------------------------
There are 4 groups of distinct atoms

 Group   1 Type N   : 12s5p4d2f1g contracted to 6s4p3d1f1g pattern {711111/2111/211/2/1}
 Group   2 Type C   : 12s5p4d2f1g contracted to 6s4p3d1f1g pattern {711111/2111/211/2/1}
 Group   3 Type O   : 12s5p4d2f1g contracted to 6s4p3d1f1g pattern {711111/2111/211/2/1}
 Group   4 Type H   : 5s2p1d contracted to 3s1p1d pattern {311/2/1}

Atom   0N    basis set group =>   1
Atom   1C    basis set group =>   2
Atom   2C    basis set group =>   2
Atom   3O    basis set group =>   3
Atom   4C    basis set group =>   2
Atom   5C    basis set group =>   2
Atom   6C    basis set group =>   2
Atom   7O    basis set group =>   3
Atom   8O    basis set group =>   3
Atom   9O    basis set group =>   3
Atom  10H    basis set group =>   4
Atom  11H    basis set group =>   4
Atom  12H    basis set group =>   4
Atom  13H    basis set group =>   4
Atom  14H    basis set group =>   4
Atom  15H    basis set group =>   4
Atom  16H    basis set group =>   4


           ************************************************************
           *        Program running with 4 parallel MPI-processes     *
           *              working on a common directory               *
           ************************************************************
------------------------------------------------------------------------------
                           ORCA GTO INTEGRAL CALCULATION
                           -- RI-GTO INTEGRALS CHOSEN --
------------------------------------------------------------------------------

                         BASIS SET STATISTICS AND STARTUP INFO

Gaussian basis set:
 # of primitive gaussian shells          ...  155
 # of primitive gaussian functions       ...  289
 # of contracted shells                  ...   81
 # of contracted basis functions         ...  175
 Highest angular momentum                ...    2
 Maximum contraction depth               ...    5
Auxiliary gaussian basis set:
 # of primitive gaussian shells          ...  296
 # of primitive gaussian functions       ...  812
 # of contracted shells                  ...  185
 # of contracted aux-basis functions     ...  567
 Highest angular momentum                ...    4
 Maximum contraction depth               ...    7
Ratio of auxiliary to basis functions    ...  3.24
Integral package used                  ... LIBINT
 One Electron integrals                  ... done
 Ordering auxiliary basis shells         ... done
 Integral threshhold             Thresh  ...  1.000e-10
 Primitive cut-off               TCut    ...  1.000e-11
 Pre-screening matrix                    ... done
 Shell pair data                         ... 
 Ordering of the shell pairs             ... done (   0.000 sec) 3034 of 3321 pairs
 Determination of significant pairs      ... done (   0.000 sec)
 Creation of shell pair data             ... done (   0.000 sec)
 Storage of shell pair data              ... done (   0.024 sec)
 Shell pair data done in (   0.025 sec)
 Computing two index integrals           ... done
 Cholesky decomposition of the V-matrix  ... done


Timings:
 Total evaluation time                   ...   0.160 sec (  0.003 min)
 One electron matrix time                ...   0.014 sec (  0.000 min) =  8.8%
 Schwartz matrix evaluation time         ...   0.091 sec (  0.002 min) = 56.9%
 Two index repulsion integral time       ...   0.008 sec (  0.000 min) =  5.0%
 Cholesky decomposition of V             ...   0.006 sec (  0.000 min) =  4.0%
 Three index repulsion integral time     ...   0.000 sec (  0.000 min) =  0.0%



           ************************************************************
           *        Program running with 4 parallel MPI-processes     *
           *              working on a common directory               *
           ************************************************************
-------------------------------------------------------------------------------
                                 ORCA SCF
-------------------------------------------------------------------------------

------------
SCF SETTINGS
------------
Hamiltonian:
 Density Functional     Method          .... DFT(GTOs)
 Exchange Functional    Exchange        .... PBE
   PBE kappa parameter   XKappa         ....  0.804000
   PBE mue parameter    XMuePBE         ....  0.219520
 Correlation Functional Correlation     .... PBE
   PBE beta parameter  CBetaPBE         ....  0.066725
 LDA part of GGA corr.  LDAOpt          .... PW91-LDA
 Gradients option       PostSCFGGA      .... off
   Density functional embedding theory  .... OFF
   NL short-range parameter             ....  6.400000
 RI-approximation to the Coulomb term is turned on
   Number of auxiliary basis functions  .... 567


General Settings:
 Integral files         IntName         .... /scratch/kacsizi/projects/swoose/structure_preparation/swoose/test/preparation_data/glutamine/reference_data/0/non_ref_state/7b05f8bb-c5fc-462e-95f7-5ec86685099c/orca_calc
 Hartree-Fock type      HFTyp           .... RHF
 Total Charge           Charge          ....   -2
 Multiplicity           Mult            ....    1
 Number of Electrons    NEL             ....   78
 Basis Dimension        Dim             ....  175
 Nuclear Repulsion      ENuc            ....    522.4126121995 Eh

Convergence Acceleration:
 DIIS                   CNVDIIS         .... on
   Start iteration      DIISMaxIt       ....    12
   Startup error        DIISStart       ....  0.200000
   # of expansion vecs  DIISMaxEq       ....     5
   Bias factor          DIISBfac        ....   1.050
   Max. coefficient     DIISMaxC        ....  10.000
 Newton-Raphson         CNVNR           .... off
 SOSCF                  CNVSOSCF        .... on
   Start iteration      SOSCFMaxIt      ....   150
   Startup grad/error   SOSCFStart      ....  0.003300
 Level Shifting         CNVShift        .... on
   Level shift para.    LevelShift      ....    0.2500
   Turn off err/grad.   ShiftErr        ....    0.0010
 Zerner damping         CNVZerner       .... off
 Static damping         CNVDamp         .... on
   Fraction old density DampFac         ....    0.7000
   Max. Damping (<1)    DampMax         ....    0.9800
   Min. Damping (>=0)   DampMin         ....    0.0000
   Turn off err/grad.   DampErr         ....    0.1000
 Fernandez-Rico         CNVRico         .... off

SCF Procedure:
 Maximum # iterations   MaxIter         ....   100
 SCF integral mode      SCFMode         .... Direct
   Integral package                     .... LIBINT
 Reset frequency        DirectResetFreq ....    20
 Integral Threshold     Thresh          ....  1.000e-10 Eh
 Primitive CutOff       TCut            ....  1.000e-11 Eh

Convergence Tolerance:
 Convergence Check Mode ConvCheckMode   .... Total+1el-Energy
 Convergence forced     ConvForced      .... 0
 Energy Change          TolE            ....  1.000e-08 Eh
 1-El. energy change                    ....  1.000e-05 Eh
 Orbital Gradient       TolG            ....  5.000e-05
 Orbital Rotation angle TolX            ....  5.000e-05
 DIIS Error             TolErr          ....  1.000e-06


Diagonalization of the overlap matrix:
Smallest eigenvalue                        ... 1.564e-03
Time for diagonalization                   ...    0.003 sec
Threshold for overlap eigenvalues          ... 1.000e-08
Number of eigenvalues below threshold      ... 0
Time for construction of square roots      ...    0.002 sec
Total time needed                          ...    0.005 sec

-------------------
DFT GRID GENERATION
-------------------

General Integration Accuracy     IntAcc      ...  4.340
Radial Grid Type                 RadialGrid  ... Gauss-Chebyshev
Angular Grid (max. acc.)         AngularGrid ... Lebedev-110
Angular grid pruning method      GridPruning ... 3 (G Style)
Weight generation scheme         WeightScheme... Becke
Basis function cutoff            BFCut       ...    1.0000e-10
Integration weight cutoff        WCut        ...    1.0000e-14
Grids for H and He will be reduced by one unit

# of grid points (after initial pruning)     ...  22404 (   0.0 sec)
# of grid points (after weights+screening)   ...  20720 (   0.0 sec)
nearest neighbour list constructed           ...    0.0 sec
Grid point re-assignment to atoms done       ...    0.0 sec
Grid point division into batches done        ...    0.0 sec
Reduced shell lists constructed in    0.0 sec

Total number of grid points                  ...    20720
Total number of batches                      ...      333
Average number of points per batch           ...       62
Average number of grid points per atom       ...     1219
Average number of shells per batch           ...    59.05 (72.90%)
Average number of basis functions per batch  ...   125.61 (71.78%)
Average number of large shells per batch     ...    45.68 (77.37%)
Average number of large basis fcns per batch ...    94.79 (75.46%)
Maximum spatial batch extension              ...  12.80, 15.00, 17.09 au
Average spatial batch extension              ...   0.62,  0.64,  0.61 au

Time for grid setup =    0.072 sec

------------------------------
INITIAL GUESS: MODEL POTENTIAL
------------------------------
Loading Hartree-Fock densities                     ... done
Calculating cut-offs                               ... done
Setting up the integral package                    ... done
Initializing the effective Hamiltonian             ... done
Starting the Coulomb interaction                   ... done (   0.0 sec)
Reading the grid                                   ... done
Mapping shells                                     ... done
Starting the XC term evaluation                    ... done (   0.1 sec)
  promolecular density results
     # of electrons  =     75.994035606
     EX              =    -66.622168310
     EC              =     -2.536564268
     EX+EC           =    -69.158732579
Transforming the Hamiltonian                       ... done (   0.0 sec)
Diagonalizing the Hamiltonian                      ... done (   0.0 sec)
Back transforming the eigenvectors                 ... done (   0.0 sec)
Now organizing SCF variables                       ... done
                      ------------------
                      INITIAL GUESS DONE (   0.2 sec)
                      ------------------
--------------
SCF ITERATIONS
--------------
ITER       Energy         Delta-E        Max-DP      RMS-DP      [F,P]     Damp
               ***  Starting incremental Fock matrix formation  ***
  0   -548.8249661613   0.000000000000 0.23182022  0.00497215  0.2834075 0.7000
  1   -549.0785848030  -0.253618641695 0.19721936  0.00352156  0.1065857 0.7000
                               ***Turning on DIIS***
  2   -549.1555130959  -0.076928292868 0.25486195  0.00505892  0.0251518 0.0000
  3   -549.2973025937  -0.141789497794 0.15313326  0.00242760  0.0636006 0.0000
  4   -549.3227165774  -0.025413983762 0.05006859  0.00082032  0.0192762 0.0000
                      *** Initiating the SOSCF procedure ***
                           *** Shutting down DIIS ***
                      *** Re-Reading the Fockian *** 
                      *** Removing any level shift *** 
ITER      Energy       Delta-E        Grad      Rot      Max-DP    RMS-DP
  5   -549.32608061  -0.0033640290  0.001273  0.001273  0.019696  0.000334
               *** Restarting incremental Fock matrix formation ***
  6   -549.32627104  -0.0001904363  0.000604  0.004059  0.014243  0.000288
  7   -549.32626966   0.0000013803  0.000713  0.001375  0.004932  0.000109
  8   -549.32629922  -0.0000295561  0.000532  0.001923  0.006191  0.000131
  9   -549.32629058   0.0000086417  0.000694  0.000794  0.001437  0.000055
 10   -549.32630795  -0.0000173725  0.000189  0.001151  0.004646  0.000083
 11   -549.32630661   0.0000013397  0.000207  0.000303  0.001463  0.000029
 12   -549.32631001  -0.0000033991  0.000046  0.000405  0.001402  0.000027
 13   -549.32630989   0.0000001216  0.000097  0.000155  0.000490  0.000011
 14   -549.32631012  -0.0000002296  0.000045  0.000262  0.000827  0.000017
 15   -549.32631007   0.0000000463  0.000050  0.000155  0.000542  0.000011
                  ***Gradient check signals convergence***
              ***Rediagonalizing the Fockian in SOSCF/NRSCF***

               *****************************************************
               *                     SUCCESS                       *
               *           SCF CONVERGED AFTER  16 CYCLES          *
               *****************************************************

Setting up the final grid:

General Integration Accuracy     IntAcc      ...  4.670
Radial Grid Type                 RadialGrid  ... Gauss-Chebyshev
Angular Grid (max. acc.)         AngularGrid ... Lebedev-302
Angular grid pruning method      GridPruning ... 3 (G Style)
Weight generation scheme         WeightScheme... Becke
Basis function cutoff            BFCut       ...    1.0000e-10
Integration weight cutoff        WCut        ...    1.0000e-14
Grids for H and He will be reduced by one unit

# of grid points (after initial pruning)     ...  85878 (   0.0 sec)
# of grid points (after weights+screening)   ...  78305 (   0.1 sec)
nearest neighbour list constructed           ...    0.0 sec
Grid point re-assignment to atoms done       ...    0.0 sec
Grid point division into batches done        ...    0.4 sec
Reduced shell lists constructed in    0.5 sec

Total number of grid points                  ...    78305
Total number of batches                      ...     1230
Average number of points per batch           ...       63
Average number of grid points per atom       ...     4606
Average number of shells per batch           ...    55.91 (69.03%)
Average number of basis functions per batch  ...   118.31 (67.61%)
Average number of large shells per batch     ...    43.18 (77.23%)
Average number of large basis fcns per batch ...    88.76 (75.02%)
Maximum spatial batch extension              ...  16.01, 18.04, 15.20 au
Average spatial batch extension              ...   0.40,  0.42,  0.41 au

Final grid set up in    0.7 sec
Final integration                            ... done (   0.3 sec)
Change in XC energy                          ...    -0.000185480
Integrated number of electrons               ...    78.000035258
Previous integrated no of electrons          ...    77.998748706

----------------
TOTAL SCF ENERGY
----------------

Total Energy       :         -549.32649570 Eh          -14947.93389 eV

Components:
Nuclear Repulsion  :          522.41261220 Eh           14215.56988 eV
Electronic Energy  :        -1071.73910790 Eh          -29163.50377 eV
One Electron Energy:        -1816.46470072 Eh          -49428.51740 eV
Two Electron Energy:          744.72559282 Eh           20265.01363 eV

Virial components:
Potential Energy   :        -1094.10320613 Eh          -29772.06182 eV
Kinetic Energy     :          544.77671043 Eh           14824.12793 eV
Virial Ratio       :            2.00835165


DFT components:
N(Alpha)           :       39.000017628914 electrons
N(Beta)            :       39.000017628914 electrons
N(Total)           :       78.000035257828 electrons
E(X)               :      -68.201491984966 Eh       
E(C)               :       -2.639453080967 Eh       
E(XC)              :      -70.840945065933 Eh       
DFET-embed. en.    :        0.000000000000 Eh       

---------------
SCF CONVERGENCE
---------------

  Last Energy change         ...   -1.5138e-07  Tolerance :   1.0000e-08
  Last MAX-Density change    ...    8.1646e-05  Tolerance :   1.0000e-05
  Last RMS-Density change    ...    2.3878e-06  Tolerance :   1.0000e-06
  Last Orbital Gradient      ...    7.8116e-06  Tolerance :   5.0000e-05
  Last Orbital Rotation      ...    3.7909e-05  Tolerance :   5.0000e-05

             **** THE GBW FILE WAS UPDATED (/scratch/kacsizi/projects/swoose/structure_preparation/swoose/test/preparation_data/glutamine/reference_data/0/non_ref_state/7b05f8bb-c5fc-462e-95f7-5ec86685099c/orca_calc.gbw) ****
             **** DENSITY FILE WAS UPDATED (/scratch/kacsizi/projects/swoose/structure_preparation/swoose/test/preparation_data/glutamine/reference_data/0/non_ref_state/7b05f8bb-c5fc-462e-95f7-5ec86685099c/orca_calc.scfp) ****
             **** ENERGY FILE WAS UPDATED (/scratch/kacsizi/projects/swoose/structure_preparation/swoose/test/preparation_data/glutamine/reference_data/0/non_ref_state/7b05f8bb-c5fc-462e-95f7-5ec86685099c/orca_calc.en.tmp) ****
             **** THE GBW FILE WAS UPDATED (/scratch/kacsizi/projects/swoose/structure_preparation/swoose/test/preparation_data/glutamine/reference_data/0/non_ref_state/7b05f8bb-c5fc-462e-95f7-5ec86685099c/orca_calc.gbw) ****
             **** DENSITY FILE WAS UPDATED (/scratch/kacsizi/projects/swoose/structure_preparation/swoose/test/preparation_data/glutamine/reference_data/0/non_ref_state/7b05f8bb-c5fc-462e-95f7-5ec86685099c/orca_calc.scfp) ****
----------------
ORBITAL ENERGIES
----------------

  NO   OCC          E(Eh)            E(eV) 
   0   2.0000     -18.364623      -499.7268 
   1   2.0000     -18.359126      -499.5772 
   2   2.0000     -18.349396      -499.3125 
   3   2.0000     -18.347603      -499.2637 
   4   2.0000     -13.674260      -372.0955 
   5   2.0000      -9.634814      -262.1766 
   6   2.0000      -9.625110      -261.9125 
   7   2.0000      -9.605618      -261.3822 
   8   2.0000      -9.603559      -261.3261 
   9   2.0000      -9.574058      -260.5234 
  10   2.0000      -0.579358       -15.7651 
  11   2.0000      -0.564599       -15.3635 
  12   2.0000      -0.498320       -13.5600 
  13   2.0000      -0.481400       -13.0996 
  14   2.0000      -0.479738       -13.0543 
  15   2.0000      -0.376615       -10.2482 
  16   2.0000      -0.285055        -7.7567 
  17   2.0000      -0.222665        -6.0590 
  18   2.0000      -0.155568        -4.2332 
  19   2.0000      -0.124349        -3.3837 
  20   2.0000      -0.104967        -2.8563 
  21   2.0000      -0.085047        -2.3143 
  22   2.0000      -0.084654        -2.3036 
  23   2.0000      -0.039340        -1.0705 
  24   2.0000      -0.028419        -0.7733 
  25   2.0000      -0.020773        -0.5653 
  26   2.0000      -0.013703        -0.3729 
  27   2.0000      -0.004329        -0.1178 
  28   2.0000      -0.001430        -0.0389 
  29   2.0000       0.012775         0.3476 
  30   2.0000       0.020350         0.5538 
  31   2.0000       0.031881         0.8675 
  32   2.0000       0.120157         3.2696 
  33   2.0000       0.127915         3.4807 
  34   2.0000       0.136731         3.7206 
  35   2.0000       0.144298         3.9265 
  36   2.0000       0.155103         4.2206 
  37   2.0000       0.159942         4.3522 
  38   2.0000       0.171257         4.6601 
  39   0.0000       0.301804         8.2125 
  40   0.0000       0.327333         8.9072 
  41   0.0000       0.345845         9.4109 
  42   0.0000       0.360442         9.8081 
  43   0.0000       0.374980        10.2037 
  44   0.0000       0.384551        10.4642 
  45   0.0000       0.394628        10.7384 
  46   0.0000       0.406943        11.0735 
  47   0.0000       0.428037        11.6475 
  48   0.0000       0.479924        13.0594 
  49   0.0000       0.495248        13.4764 
  50   0.0000       0.499424        13.5900 
  51   0.0000       0.529241        14.4014 
  52   0.0000       0.555835        15.1250 
  53   0.0000       0.583782        15.8855 
  54   0.0000       0.608696        16.5635 
  55   0.0000       0.658878        17.9290 
  56   0.0000       0.688876        18.7453 
  57   0.0000       0.717967        19.5369 
  58   0.0000       0.749809        20.4033 
  59   0.0000       0.767100        20.8738 
  60   0.0000       0.774082        21.0638 
  61   0.0000       0.809921        22.0391 
  62   0.0000       0.816843        22.2274 
  63   0.0000       0.829809        22.5802 
  64   0.0000       0.831268        22.6200 
  65   0.0000       0.838858        22.8265 
  66   0.0000       0.868709        23.6388 
  67   0.0000       0.876040        23.8383 
  68   0.0000       0.895419        24.3656 
  69   0.0000       0.899616        24.4798 
  70   0.0000       0.916429        24.9373 
  71   0.0000       0.919721        25.0269 
  72   0.0000       0.924074        25.1453 
  73   0.0000       0.935073        25.4446 
  74   0.0000       0.951300        25.8862 
  75   0.0000       0.964079        26.2339 
  76   0.0000       0.967638        26.3308 
  77   0.0000       0.977543        26.6003 
  78   0.0000       1.002611        27.2824 
  79   0.0000       1.030331        28.0367 
  80   0.0000       1.072557        29.1858 
  81   0.0000       1.092896        29.7392 
  82   0.0000       1.107306        30.1313 
  83   0.0000       1.152338        31.3567 
  84   0.0000       1.176137        32.0043 
  85   0.0000       1.195100        32.5203 
  86   0.0000       1.211446        32.9651 
  87   0.0000       1.242421        33.8080 
  88   0.0000       1.244671        33.8692 
  89   0.0000       1.297202        35.2986 
  90   0.0000       1.314509        35.7696 
  91   0.0000       1.349820        36.7305 
  92   0.0000       1.374818        37.4107 
  93   0.0000       1.383279        37.6409 
  94   0.0000       1.392248        37.8850 
  95   0.0000       1.421381        38.6777 
  96   0.0000       1.440755        39.2049 
  97   0.0000       1.460963        39.7548 
  98   0.0000       1.504343        40.9352 
  99   0.0000       1.544897        42.0388 
 100   0.0000       1.567708        42.6595 
 101   0.0000       1.593506        43.3615 
 102   0.0000       1.639746        44.6197 
 103   0.0000       1.660470        45.1837 
 104   0.0000       1.688595        45.9490 
 105   0.0000       1.733630        47.1745 
 106   0.0000       1.751043        47.6483 
 107   0.0000       1.784825        48.5676 
 108   0.0000       1.862043        50.6688 
 109   0.0000       1.884063        51.2680 
 110   0.0000       1.896335        51.6019 
 111   0.0000       1.926756        52.4297 
 112   0.0000       1.941166        52.8218 
 113   0.0000       1.952683        53.1352 
 114   0.0000       1.962487        53.4020 
 115   0.0000       1.984025        53.9881 
 116   0.0000       1.997335        54.3502 
 117   0.0000       2.012465        54.7620 
 118   0.0000       2.039671        55.5023 
 119   0.0000       2.043938        55.6184 
 120   0.0000       2.084750        56.7289 
 121   0.0000       2.119520        57.6751 
 122   0.0000       2.137195        58.1560 
 123   0.0000       2.166365        58.9498 
 124   0.0000       2.175903        59.2093 
 125   0.0000       2.187137        59.5150 
 126   0.0000       2.205480        60.0142 
 127   0.0000       2.221854        60.4597 
 128   0.0000       2.250287        61.2334 
 129   0.0000       2.265743        61.6540 
 130   0.0000       2.338750        63.6406 
 131   0.0000       2.383188        64.8498 
 132   0.0000       2.385988        64.9260 
 133   0.0000       2.396420        65.2099 
 134   0.0000       2.442486        66.4634 
 135   0.0000       2.479539        67.4717 
 136   0.0000       2.508624        68.2631 
 137   0.0000       2.531272        68.8794 
 138   0.0000       2.559247        69.6406 
 139   0.0000       2.569637        69.9234 
 140   0.0000       2.650879        72.1341 
 141   0.0000       2.676983        72.8444 
 142   0.0000       2.757863        75.0453 
 143   0.0000       2.800044        76.1931 
 144   0.0000       2.863322        77.9149 
 145   0.0000       2.867963        78.0413 
 146   0.0000       2.921308        79.4928 
 147   0.0000       2.927196        79.6530 
 148   0.0000       2.938774        79.9681 
 149   0.0000       2.951021        80.3014 
 150   0.0000       2.953751        80.3757 
 151   0.0000       2.962153        80.6043 
 152   0.0000       2.971178        80.8499 
 153   0.0000       3.003342        81.7251 
 154   0.0000       3.030031        82.4513 
 155   0.0000       3.065442        83.4149 
 156   0.0000       3.115247        84.7702 
 157   0.0000       3.128180        85.1221 
 158   0.0000       3.182519        86.6007 
 159   0.0000       3.215326        87.4935 
 160   0.0000       3.238595        88.1267 
 161   0.0000       3.249040        88.4109 
 162   0.0000       3.258963        88.6809 
 163   0.0000       3.378022        91.9207 
 164   0.0000       3.388914        92.2170 
 165   0.0000       3.475829        94.5821 
 166   0.0000       3.491538        95.0096 
 167   0.0000       3.500032        95.2407 
 168   0.0000       3.571803        97.1937 
 169   0.0000       3.593015        97.7709 
 170   0.0000       3.595920        97.8500 
 171   0.0000       3.835672       104.3739 
 172   0.0000       3.850080       104.7660 
 173   0.0000       3.928391       106.8970 
 174   0.0000       3.937411       107.1424 

                    ********************************
                    * MULLIKEN POPULATION ANALYSIS *
                    ********************************

-----------------------
MULLIKEN ATOMIC CHARGES
-----------------------
   0 N :   -0.223315
   1 C :    0.036775
   2 C :   -0.003644
   3 O :   -0.350799
   4 C :   -0.044796
   5 C :    0.066671
   6 C :   -0.039333
   7 O :   -0.449433
   8 O :   -0.367752
   9 O :   -0.420179
  10 H :   -0.033757
  11 H :   -0.052515
  12 H :   -0.049165
  13 H :   -0.099065
  14 H :   -0.024478
  15 H :    0.035146
  16 H :    0.019638
Sum of atomic charges:   -2.0000000

--------------------------------
MULLIKEN REDUCED ORBITAL CHARGES
--------------------------------
  0 N s       :     3.287708  s :     3.287708
      pz      :     1.020783  p :     3.922534
      px      :     1.010993
      py      :     1.890758
      dz2     :     0.004601  d :     0.013073
      dxz     :     0.003647
      dyz     :     0.001662
      dx2y2   :     0.002555
      dxy     :     0.000609
  1 C s       :     3.073566  s :     3.073566
      pz      :     0.851290  p :     2.838467
      px      :     0.978445
      py      :     1.008732
      dz2     :     0.011273  d :     0.051192
      dxz     :     0.012033
      dyz     :     0.011726
      dx2y2   :     0.008683
      dxy     :     0.007478
  2 C s       :     3.074927  s :     3.074927
      pz      :     0.938651  p :     2.797738
      px      :     0.928604
      py      :     0.930483
      dz2     :     0.032204  d :     0.130979
      dxz     :     0.036892
      dyz     :     0.030784
      dx2y2   :     0.016552
      dxy     :     0.014547
  3 O s       :     3.741131  s :     3.741131
      pz      :     1.373506  p :     4.595716
      px      :     1.628564
      py      :     1.593645
      dz2     :     0.005770  d :     0.013951
      dxz     :     0.003708
      dyz     :     0.003792
      dx2y2   :     0.000367
      dxy     :     0.000315
  4 C s       :     3.073086  s :     3.073086
      pz      :     1.041612  p :     2.939371
      px      :     0.949538
      py      :     0.948222
      dz2     :     0.005706  d :     0.032339
      dxz     :     0.007948
      dyz     :     0.004719
      dx2y2   :     0.007240
      dxy     :     0.006726
  5 C s       :     2.997007  s :     2.997007
      pz      :     0.962659  p :     2.908429
      px      :     0.881599
      py      :     1.064170
      dz2     :     0.004838  d :     0.027893
      dxz     :     0.007143
      dyz     :     0.005297
      dx2y2   :     0.003856
      dxy     :     0.006759
  6 C s       :     3.085916  s :     3.085916
      pz      :     0.917784  p :     2.822981
      px      :     0.929570
      py      :     0.975627
      dz2     :     0.021191  d :     0.130436
      dxz     :     0.027261
      dyz     :     0.014987
      dx2y2   :     0.035108
      dxy     :     0.031889
  7 O s       :     3.742913  s :     3.742913
      pz      :     1.563652  p :     4.694125
      px      :     1.391832
      py      :     1.738641
      dz2     :     0.001697  d :     0.012395
      dxz     :     0.003574
      dyz     :     0.000671
      dx2y2   :     0.003737
      dxy     :     0.002717
  8 O s       :     3.742765  s :     3.742765
      pz      :     1.454947  p :     4.611249
      px      :     1.568585
      py      :     1.587717
      dz2     :     0.002734  d :     0.013738
      dxz     :     0.002979
      dyz     :     0.002817
      dx2y2   :     0.002046
      dxy     :     0.003161
  9 O s       :     3.744860  s :     3.744860
      pz      :     1.710448  p :     4.662637
      px      :     1.469095
      py      :     1.483094
      dz2     :     0.001599  d :     0.012682
      dxz     :     0.002343
      dyz     :     0.001749
      dx2y2   :     0.003274
      dxy     :     0.003716
 10 H s       :     1.014548  s :     1.014548
      pz      :     0.004188  p :     0.019209
      px      :     0.003888
      py      :     0.011133
 11 H s       :     1.031250  s :     1.031250
      pz      :     0.008326  p :     0.021265
      px      :     0.006732
      py      :     0.006206
 12 H s       :     1.027511  s :     1.027511
      pz      :     0.004706  p :     0.021653
      px      :     0.005979
      py      :     0.010968
 13 H s       :     1.077741  s :     1.077741
      pz      :     0.004938  p :     0.021324
      px      :     0.010383
      py      :     0.006003
 14 H s       :     1.001650  s :     1.001650
      pz      :     0.009800  p :     0.022828
      px      :     0.008089
      py      :     0.004939
 15 H s       :     0.919350  s :     0.919350
      pz      :     0.007872  p :     0.045505
      px      :     0.021881
      py      :     0.015752
 16 H s       :     0.934485  s :     0.934485
      pz      :     0.016538  p :     0.045878
      px      :     0.011626
      py      :     0.017714


                     *******************************
                     * LOEWDIN POPULATION ANALYSIS *
                     *******************************

----------------------
LOEWDIN ATOMIC CHARGES
----------------------
   0 N :   -0.140761
   1 C :   -0.043598
   2 C :   -0.074013
   3 O :   -0.331148
   4 C :   -0.049779
   5 C :   -0.111953
   6 C :   -0.076479
   7 O :   -0.419678
   8 O :   -0.349979
   9 O :   -0.389105
  10 H :   -0.009669
  11 H :   -0.009780
  12 H :   -0.005500
  13 H :   -0.020288
  14 H :    0.010755
  15 H :    0.012783
  16 H :    0.008193

-------------------------------
LOEWDIN REDUCED ORBITAL CHARGES
-------------------------------
  0 N s       :     3.049777  s :     3.049777
      pz      :     1.117382  p :     4.053354
      px      :     1.130675
      py      :     1.805297
      dz2     :     0.014362  d :     0.037630
      dxz     :     0.013184
      dyz     :     0.002932
      dx2y2   :     0.006017
      dxy     :     0.001135
  1 C s       :     2.882176  s :     2.882176
      pz      :     0.950455  p :     3.036625
      px      :     1.017699
      py      :     1.068472
      dz2     :     0.026556  d :     0.124797
      dxz     :     0.029571
      dyz     :     0.029212
      dx2y2   :     0.020744
      dxy     :     0.018714
  2 C s       :     2.880572  s :     2.880572
      pz      :     1.011957  p :     2.884970
      px      :     0.949656
      py      :     0.923358
      dz2     :     0.075978  d :     0.308471
      dxz     :     0.092076
      dyz     :     0.073326
      dx2y2   :     0.032504
      dxy     :     0.034587
  3 O s       :     3.575872  s :     3.575872
      pz      :     1.483609  p :     4.729766
      px      :     1.644291
      py      :     1.601867
      dz2     :     0.012759  d :     0.025510
      dxz     :     0.006000
      dyz     :     0.005724
      dx2y2   :     0.000504
      dxy     :     0.000524
  4 C s       :     2.868780  s :     2.868780
      pz      :     1.042706  p :     3.095273
      px      :     1.015654
      py      :     1.036914
      dz2     :     0.013973  d :     0.085726
      dxz     :     0.023111
      dyz     :     0.011926
      dx2y2   :     0.018797
      dxy     :     0.017919
  5 C s       :     2.892525  s :     2.892525
      pz      :     1.041735  p :     3.143922
      px      :     1.021938
      py      :     1.080249
      dz2     :     0.012319  d :     0.075506
      dxz     :     0.021470
      dyz     :     0.012656
      dx2y2   :     0.010824
      dxy     :     0.018236
  6 C s       :     2.879645  s :     2.879645
      pz      :     0.923334  p :     2.889677
      px      :     0.987822
      py      :     0.978520
      dz2     :     0.043529  d :     0.307157
      dxz     :     0.067371
      dyz     :     0.034294
      dx2y2   :     0.086863
      dxy     :     0.075099
  7 O s       :     3.589233  s :     3.589233
      pz      :     1.578646  p :     4.807391
      px      :     1.478024
      py      :     1.750721
      dz2     :     0.002981  d :     0.023053
      dxz     :     0.006657
      dyz     :     0.001018
      dx2y2   :     0.007406
      dxy     :     0.004992
  8 O s       :     3.578646  s :     3.578646
      pz      :     1.489308  p :     4.746124
      px      :     1.622243
      py      :     1.634574
      dz2     :     0.003668  d :     0.025208
      dxz     :     0.006153
      dyz     :     0.005978
      dx2y2   :     0.003258
      dxy     :     0.006151
  9 O s       :     3.586566  s :     3.586566
      pz      :     1.736261  p :     4.778971
      px      :     1.520816
      py      :     1.521895
      dz2     :     0.003078  d :     0.023568
      dxz     :     0.004475
      dyz     :     0.003187
      dx2y2   :     0.004528
      dxy     :     0.008301
 10 H s       :     0.942155  s :     0.942155
      pz      :     0.014764  p :     0.067514
      px      :     0.014514
      py      :     0.038237
 11 H s       :     0.945189  s :     0.945189
      pz      :     0.026517  p :     0.064591
      px      :     0.020341
      py      :     0.017733
 12 H s       :     0.938371  s :     0.938371
      pz      :     0.014389  p :     0.067130
      px      :     0.016384
      py      :     0.036357
 13 H s       :     0.952316  s :     0.952316
      pz      :     0.015978  p :     0.067972
      px      :     0.030496
      py      :     0.021498
 14 H s       :     0.918052  s :     0.918052
      pz      :     0.030161  p :     0.071193
      px      :     0.024082
      py      :     0.016951
 15 H s       :     0.854531  s :     0.854531
      pz      :     0.017102  p :     0.132687
      px      :     0.066514
      py      :     0.049071
 16 H s       :     0.862010  s :     0.862010
      pz      :     0.050099  p :     0.129797
      px      :     0.028195
      py      :     0.051503


                      *****************************
                      * MAYER POPULATION ANALYSIS *
                      *****************************

  NA   - Mulliken gross atomic population
  ZA   - Total nuclear charge
  QA   - Mulliken gross atomic charge
  VA   - Mayer's total valence
  BVA  - Mayer's bonded valence
  FA   - Mayer's free valence

  ATOM       NA         ZA         QA         VA         BVA        FA
  0 N      7.2233     7.0000    -0.2233     2.9636     2.9636    -0.0000
  1 C      5.9632     6.0000     0.0368     3.8149     3.8149    -0.0000
  2 C      6.0036     6.0000    -0.0036     4.5200     4.5200    -0.0000
  3 O      8.3508     8.0000    -0.3508     2.1280     2.1280    -0.0000
  4 C      6.0448     6.0000    -0.0448     4.1081     4.1081     0.0000
  5 C      5.9333     6.0000     0.0667     3.7307     3.7307    -0.0000
  6 C      6.0393     6.0000    -0.0393     4.6199     4.6199     0.0000
  7 O      8.4494     8.0000    -0.4494     2.0137     2.0137     0.0000
  8 O      8.3678     8.0000    -0.3678     2.0927     2.0927    -0.0000
  9 O      8.4202     8.0000    -0.4202     2.0660     2.0660     0.0000
 10 H      1.0338     1.0000    -0.0338     1.0243     1.0243     0.0000
 11 H      1.0525     1.0000    -0.0525     0.9777     0.9777    -0.0000
 12 H      1.0492     1.0000    -0.0492     0.9984     0.9984    -0.0000
 13 H      1.0991     1.0000    -0.0991     1.0080     1.0080     0.0000
 14 H      1.0245     1.0000    -0.0245     1.0406     1.0406    -0.0000
 15 H      0.9649     1.0000     0.0351     1.0812     1.0812    -0.0000
 16 H      0.9804     1.0000     0.0196     1.0319     1.0319    -0.0000

  Mayer bond orders larger than 0.100000
B(  0-N ,  1-C ) :   1.0176 B(  0-N , 15-H ) :   0.9408 B(  0-N , 16-H ) :   0.9570 
B(  1-C ,  2-C ) :   0.8146 B(  1-C ,  4-C ) :   1.0538 B(  1-C , 10-H ) :   0.9023 
B(  2-C ,  3-O ) :   1.8685 B(  2-C ,  9-O ) :   1.7893 B(  3-O ,  9-O ) :   0.1438 
B(  4-C ,  5-C ) :   1.1066 B(  4-C , 11-H ) :   0.9215 B(  4-C , 12-H ) :   0.9195 
B(  5-C ,  6-C ) :   0.8840 B(  5-C , 13-H ) :   0.8928 B(  5-C , 14-H ) :   0.8916 
B(  6-C ,  7-O ) :   1.7963 B(  6-C ,  8-O ) :   1.8741 B(  7-O ,  8-O ) :   0.1436 



------------------
HIRSHFELD ANALYSIS
------------------

Total integrated alpha density =     38.999374354
Total integrated beta density  =     38.999374354

  ATOM     CHARGE      SPIN    
   0 N   -0.271424    0.000000
   1 C    0.000685    0.000000
   2 C    0.102956    0.000000
   3 O   -0.425326    0.000000
   4 C   -0.055023    0.000000
   5 C   -0.088013    0.000000
   6 C    0.094944    0.000000
   7 O   -0.500658    0.000000
   8 O   -0.440647    0.000000
   9 O   -0.466723    0.000000
  10 H   -0.013390    0.000000
  11 H   -0.010113    0.000000
  12 H   -0.013395    0.000000
  13 H   -0.025060    0.000000
  14 H   -0.000155    0.000000
  15 H    0.058568    0.000000
  16 H    0.054026    0.000000

  TOTAL  -1.998749    0.000000

-------
TIMINGS
-------

Total SCF time: 0 days 0 hours 0 min 5 sec 

Total time                  ....       5.531 sec
Sum of individual times     ....       5.399 sec  ( 97.6%)

Fock matrix formation       ....       4.315 sec  ( 78.0%)
  Split-RI-J                ....       2.832 sec  ( 65.6% of F)
  XC integration            ....       1.427 sec  ( 33.1% of F)
    Basis function eval.    ....       0.548 sec  ( 38.4% of XC)
    Density eval.           ....       0.268 sec  ( 18.8% of XC)
    XC-Functional eval.     ....       0.091 sec  (  6.4% of XC)
    XC-Potential eval.      ....       0.412 sec  ( 28.9% of XC)
Diagonalization             ....       0.029 sec  (  0.5%)
Density matrix formation    ....       0.005 sec  (  0.1%)
Population analysis         ....       0.082 sec  (  1.5%)
Initial guess               ....       0.177 sec  (  3.2%)
Orbital Transformation      ....       0.000 sec  (  0.0%)
Orbital Orthonormalization  ....       0.000 sec  (  0.0%)
DIIS solution               ....       0.011 sec  (  0.2%)
SOSCF solution              ....       0.045 sec  (  0.8%)
Grid generation             ....       0.733 sec  ( 13.3%)


-------------------------------------------------------------------------------
                          DFT DISPERSION CORRECTION                            
                                                                               
                              DFTD3 V3.1  Rev 1                                
                          USING Becke-Johnson damping                          
-------------------------------------------------------------------------------
The PBE functional is recognized
Active option DFTDOPT                   ...         4   

molecular C6(AA) [au] = 2837.880207 


            DFT-D V3
 parameters
 s6 scaling factor         :     1.0000 
 a1 scaling factor         :     0.4289 
 s8 scaling factor         :     0.7875 
 a2 scaling factor         :     4.4407 
 ad hoc parameters k1-k3   :    16.0000     1.3333    -4.0000 

 Edisp/kcal,au: -10.193748482794  -0.016244770504 
 E6   /kcal   :  -7.264907503 
 E8   /kcal   :  -2.928840979 
 % E8         :  28.731736754 

-------------------------   ----------------
Dispersion correction           -0.016244771
-------------------------   ----------------


-------------------------   --------------------
FINAL SINGLE POINT ENERGY      -549.342740472576
-------------------------   --------------------


                            ***************************************
                            *     ORCA property calculations      *
                            ***************************************

                                    ---------------------
                                    Active property flags
                                    ---------------------
   (+) Dipole Moment


------------------------------------------------------------------------------
                       ORCA ELECTRIC PROPERTIES CALCULATION
------------------------------------------------------------------------------

Dipole Moment Calculation                       ... on
Quadrupole Moment Calculation                   ... off
Polarizability Calculation                      ... off
GBWName                                         ... /scratch/kacsizi/projects/swoose/structure_preparation/swoose/test/preparation_data/glutamine/reference_data/0/non_ref_state/7b05f8bb-c5fc-462e-95f7-5ec86685099c/orca_calc.gbw
Electron density file                           ... /scratch/kacsizi/projects/swoose/structure_preparation/swoose/test/preparation_data/glutamine/reference_data/0/non_ref_state/7b05f8bb-c5fc-462e-95f7-5ec86685099c/orca_calc.scfp
The origin for moment calculation is the CENTER OF MASS  = (-1.015753, -0.889753  2.226646)

-------------
DIPOLE MOMENT
-------------
                                X             Y             Z
Electronic contribution:      0.78777      -1.97862      -5.36965
Nuclear contribution   :     -0.26434       2.56477       7.19382
                        -----------------------------------------
Total Dipole Moment    :      0.52343       0.58615       1.82417
                        -----------------------------------------
Magnitude (a.u.)       :      1.98624
Magnitude (Debye)      :      5.04861



--------------------
Rotational spectrum 
--------------------
 
Rotational constants in cm-1:     0.079366     0.025900     0.022356 
Rotational constants in MHz :  2379.337105   776.447776   670.220487 

 Dipole components along the rotational axes: 
x,y,z [a.u.] :    -1.041630     1.678748    -0.204809 
x,y,z [Debye]:    -2.647613     4.267039    -0.520583 

 


           ************************************************************
           *        Program running with 4 parallel MPI-processes     *
           *              working on a common directory               *
           ************************************************************

-------------------------------------------------------------------------------
                               ORCA SCF HESSIAN
-------------------------------------------------------------------------------

Hessian of the Kohn-Sham DFT energy:
Kohn-Sham wavefunction type                      ... RKS
Hartree-Fock exchange scaling                    ...    0.000
Number of operators                              ...    1
Number of atoms                                  ...   17
Basis set dimensions                             ...  175
Integral neglect threshold                       ... 1.0e-10
Integral primitive cutoff                        ... 1.0e-11

Setting up DFT Hessian calculations              ... 
Electron density on the grid                     ... found on disk
Electron density on the final grid               ... found on disk
Building xc-kernel on the grid                   ... done   (      0.0 sec)
Building xc-kernel on the final grid             ... done   (      0.0 sec)
                                                     done   (      0.1 sec)

Nuclear repulsion Hessian                        ... done   (      0.0 sec)

----------------------------------------------
Forming right-hand sides of CP-SCF equations     ...
----------------------------------------------
One electron integral derivatives                ... done   (      0.2 sec)
Transforming the overlap derivative matrices     ... done   (      0.0 sec)
Making the Q(x) pseudodensities                  ... done   (      0.0 sec)
Adding the E*S(x)*S(y) terms to the Hessian      ... done   (      0.0 sec)
Calculating energy weighted overlap derivatives  ... done   (      0.0 sec)
Two electron integral derivatives (RI)           ... done   (      1.4 sec)
Exchange-correlation integral derivatives        ... done   (      9.6 sec)
tr(F(y)Q(x)) contribution to the Hessian         ... done   (      0.0 sec)
Response fock operator R(S(x)) (RI)              ... done   (      2.7 sec)
XC Response fock operator R(S(x))                ... done   (      3.8 sec)
tr(F(y)S(x)) contribution to the Hessian         ... done   (      0.0 sec)
Transforming and finalizing RHSs                 ... done   (      0.0 sec)

----------------------------------------------
Solving the CP-SCF equations (RI)                ...
----------------------------------------------
     CP-SCF ITERATION   0: 
     CP-SCF ITERATION   1:      0.012910540515
     CP-SCF ITERATION   2:      0.001782185885
     CP-SCF ITERATION   3:      0.000228701083
     CP-SCF ITERATION   4:      0.000028342976
     CP-SCF ITERATION   5:      0.000002143524
     CP-SCF ITERATION   6:      0.000000956680

                                                 ... done   (     32.5 sec)
Forming perturbed density Hessian contributions  ... done   (      0.0 sec)
Making the perturbed densities                   ... done   (      0.0 sec)
2nd integral derivative contribs (RI)            ... done   (      2.9 sec)
Exchange-correlation Hessian                     ... done   (      8.3 sec)
Dispersion correction in the Hessian             ... done   (      0.8 sec)
Dipol derivatives                                ... done   (      0.3 sec)

Total SCF Hessian time: 0 days 0 hours 1 min 2 sec 

Writing the Hessian file to the disk             ... done


Maximum memory used throughout the entire calculation: 153.6 MB

-----------------------
VIBRATIONAL FREQUENCIES
-----------------------

Scaling factor for frequencies =  1.000000000  (already applied!)

   0:         0.00 cm**-1
   1:         0.00 cm**-1
   2:         0.00 cm**-1
   3:         0.00 cm**-1
   4:         0.00 cm**-1
   5:         0.00 cm**-1
   6:      -787.81 cm**-1 ***imaginary mode***
   7:      -131.51 cm**-1 ***imaginary mode***
   8:       -60.02 cm**-1 ***imaginary mode***
   9:        -6.49 cm**-1 ***imaginary mode***
  10:        79.94 cm**-1
  11:       107.51 cm**-1
  12:       142.15 cm**-1
  13:       236.86 cm**-1
  14:       323.04 cm**-1
  15:       346.48 cm**-1
  16:       400.22 cm**-1
  17:       433.72 cm**-1
  18:       508.87 cm**-1
  19:       583.55 cm**-1
  20:       625.19 cm**-1
  21:       732.62 cm**-1
  22:       759.26 cm**-1
  23:       799.96 cm**-1
  24:       826.54 cm**-1
  25:       836.86 cm**-1
  26:       943.89 cm**-1
  27:       971.17 cm**-1
  28:      1035.76 cm**-1
  29:      1067.91 cm**-1
  30:      1101.23 cm**-1
  31:      1128.48 cm**-1
  32:      1153.63 cm**-1
  33:      1220.00 cm**-1
  34:      1243.16 cm**-1
  35:      1264.33 cm**-1
  36:      1293.60 cm**-1
  37:      1314.18 cm**-1
  38:      1326.23 cm**-1
  39:      1334.47 cm**-1
  40:      1357.80 cm**-1
  41:      1463.97 cm**-1
  42:      1684.96 cm**-1
  43:      1699.30 cm**-1
  44:      2866.14 cm**-1
  45:      2889.59 cm**-1
  46:      2934.27 cm**-1
  47:      2972.25 cm**-1
  48:      3051.74 cm**-1
  49:      3509.28 cm**-1
  50:      3660.33 cm**-1


------------
NORMAL MODES
------------

These modes are the Cartesian displacements weighted by the diagonal matrix
M(i,i)=1/sqrt(m[i]) where m[i] is the mass of the displaced atom
Thus, these vectors are normalized but *not* orthogonal

                  0          1          2          3          4          5    
      0       0.000000   0.000000   0.000000   0.000000   0.000000   0.000000
      1       0.000000   0.000000   0.000000   0.000000   0.000000   0.000000
      2       0.000000   0.000000   0.000000   0.000000   0.000000   0.000000
      3       0.000000   0.000000   0.000000   0.000000   0.000000   0.000000
      4       0.000000   0.000000   0.000000   0.000000   0.000000   0.000000
      5       0.000000   0.000000   0.000000   0.000000   0.000000   0.000000
      6       0.000000   0.000000   0.000000   0.000000   0.000000   0.000000
      7       0.000000   0.000000   0.000000   0.000000   0.000000   0.000000
      8       0.000000   0.000000   0.000000   0.000000   0.000000   0.000000
      9       0.000000   0.000000   0.000000   0.000000   0.000000   0.000000
     10       0.000000   0.000000   0.000000   0.000000   0.000000   0.000000
     11       0.000000   0.000000   0.000000   0.000000   0.000000   0.000000
     12       0.000000   0.000000   0.000000   0.000000   0.000000   0.000000
     13       0.000000   0.000000   0.000000   0.000000   0.000000   0.000000
     14       0.000000   0.000000   0.000000   0.000000   0.000000   0.000000
     15       0.000000   0.000000   0.000000   0.000000   0.000000   0.000000
     16       0.000000   0.000000   0.000000   0.000000   0.000000   0.000000
     17       0.000000   0.000000   0.000000   0.000000   0.000000   0.000000
     18       0.000000   0.000000   0.000000   0.000000   0.000000   0.000000
     19       0.000000   0.000000   0.000000   0.000000   0.000000   0.000000
     20       0.000000   0.000000   0.000000   0.000000   0.000000   0.000000
     21       0.000000   0.000000   0.000000   0.000000   0.000000   0.000000
     22       0.000000   0.000000   0.000000   0.000000   0.000000   0.000000
     23       0.000000   0.000000   0.000000   0.000000   0.000000   0.000000
     24       0.000000   0.000000   0.000000   0.000000   0.000000   0.000000
     25       0.000000   0.000000   0.000000   0.000000   0.000000   0.000000
     26       0.000000   0.000000   0.000000   0.000000   0.000000   0.000000
     27       0.000000   0.000000   0.000000   0.000000   0.000000   0.000000
     28       0.000000   0.000000   0.000000   0.000000   0.000000   0.000000
     29       0.000000   0.000000   0.000000   0.000000   0.000000   0.000000
     30       0.000000   0.000000   0.000000   0.000000   0.000000   0.000000
     31       0.000000   0.000000   0.000000   0.000000   0.000000   0.000000
     32       0.000000   0.000000   0.000000   0.000000   0.000000   0.000000
     33       0.000000   0.000000   0.000000   0.000000   0.000000   0.000000
     34       0.000000   0.000000   0.000000   0.000000   0.000000   0.000000
     35       0.000000   0.000000   0.000000   0.000000   0.000000   0.000000
     36       0.000000   0.000000   0.000000   0.000000   0.000000   0.000000
     37       0.000000   0.000000   0.000000   0.000000   0.000000   0.000000
     38       0.000000   0.000000   0.000000   0.000000   0.000000   0.000000
     39       0.000000   0.000000   0.000000   0.000000   0.000000   0.000000
     40       0.000000   0.000000   0.000000   0.000000   0.000000   0.000000
     41       0.000000   0.000000   0.000000   0.000000   0.000000   0.000000
     42       0.000000   0.000000   0.000000   0.000000   0.000000   0.000000
     43       0.000000   0.000000   0.000000   0.000000   0.000000   0.000000
     44       0.000000   0.000000   0.000000   0.000000   0.000000   0.000000
     45       0.000000   0.000000   0.000000   0.000000   0.000000   0.000000
     46       0.000000   0.000000   0.000000   0.000000   0.000000   0.000000
     47       0.000000   0.000000   0.000000   0.000000   0.000000   0.000000
     48       0.000000   0.000000   0.000000   0.000000   0.000000   0.000000
     49       0.000000   0.000000   0.000000   0.000000   0.000000   0.000000
     50       0.000000   0.000000   0.000000   0.000000   0.000000   0.000000
                  6          7          8          9         10         11    
      0       0.009681   0.055405   0.108247  -0.120820   0.053208   0.102882
      1      -0.124333   0.078869  -0.057614  -0.002257   0.182045   0.165381
      2       0.004195  -0.030798  -0.045727   0.042318   0.104045   0.102207
      3      -0.001703  -0.021308   0.062697  -0.021686   0.013859   0.151032
      4       0.012154   0.009495  -0.021958   0.052757   0.021834   0.002726
      5       0.000552   0.021224  -0.027751  -0.017206   0.127669   0.084014
      6      -0.005026  -0.004353  -0.018321   0.011809  -0.071223   0.060528
      7      -0.000333  -0.024357   0.054278   0.036258  -0.079212   0.063564
      8       0.000732   0.020440  -0.043198  -0.002739  -0.021979   0.045471
      9       0.002251  -0.037623  -0.114560  -0.161686  -0.214817  -0.028812
     10       0.002256   0.056777   0.149247   0.250520  -0.156471   0.072029
     11       0.000760   0.018285  -0.041856  -0.010540   0.026774   0.060865
     12      -0.001693  -0.038169   0.054282  -0.012834  -0.013662   0.041986
     13       0.004775   0.004839  -0.070726   0.057868  -0.048510  -0.203148
     14      -0.001917  -0.007026   0.076722  -0.050428   0.150902   0.022905
     15      -0.001341  -0.029412  -0.024691   0.009828  -0.022367   0.126481
     16       0.001976  -0.000341  -0.045824  -0.010285   0.013556  -0.145729
     17      -0.000146  -0.014824   0.143506  -0.068658   0.159678  -0.050279
     18      -0.000108  -0.009269  -0.027922   0.030399   0.062264  -0.102470
     19      -0.000779  -0.005997  -0.016114  -0.043448   0.040850  -0.049076
     20       0.000097  -0.011024   0.042225   0.013177  -0.060578  -0.073516
     21       0.000087  -0.005124  -0.290502   0.052318   0.052684  -0.127964
     22       0.000535  -0.021240   0.196349  -0.051772  -0.071643   0.126340
     23      -0.000037  -0.009587  -0.500524   0.064469  -0.151430  -0.024224
     24       0.000091   0.002480   0.223714   0.021413   0.117830  -0.272199
     25       0.000711  -0.000643  -0.204930  -0.059423   0.186786  -0.143598
     26      -0.000158  -0.005773   0.477257   0.018563  -0.140276  -0.155011
     27       0.000950   0.069508   0.026116   0.203520   0.018542   0.076849
     28       0.002150  -0.106425   0.010151  -0.213705  -0.100878   0.072625
     29       0.004036   0.028557  -0.063350  -0.002772  -0.171247  -0.012470
     30      -0.005943  -0.002674   0.058024  -0.043001   0.049651   0.316960
     31       0.018973  -0.001410  -0.006319   0.058173  -0.027834  -0.047269
     32      -0.003704   0.044787  -0.063689  -0.029679   0.257621   0.141790
     33       0.005695  -0.046988   0.144923  -0.022122   0.009507   0.018758
     34       0.000774   0.005742  -0.110703   0.087230  -0.111255  -0.321722
     35      -0.001050  -0.013079   0.115813  -0.038173   0.127756  -0.067277
     36      -0.007073  -0.043720   0.041143  -0.041180  -0.050965  -0.102054
     37       0.010860   0.001823  -0.071552   0.078972  -0.048186  -0.183022
     38      -0.005296   0.004430   0.100807  -0.092751   0.206721   0.133266
     39      -0.003066  -0.038064  -0.020143  -0.001369  -0.057899   0.191558
     40       0.000161  -0.007987  -0.070024  -0.004128  -0.090707  -0.015038
     41      -0.002367  -0.024854   0.193504  -0.111040   0.244019  -0.096529
     42      -0.003068  -0.026678  -0.061820   0.032782  -0.061381   0.243683
     43       0.001871   0.003842   0.003934  -0.064435   0.165782  -0.230244
     44      -0.001275  -0.010858   0.140396  -0.079608   0.210635  -0.012693
     45      -0.044681   0.009146   0.114119  -0.079108   0.072817   0.110398
     46       0.658679   0.773915  -0.153915  -0.590633  -0.110522   0.054489
     47      -0.084291  -0.203281  -0.062914   0.175353   0.078863   0.136479
     48      -0.012386   0.136462   0.134774  -0.210058   0.078692   0.072741
     49       0.734689  -0.541588   0.011059   0.536802   0.563602   0.374671
     50      -0.025191   0.026392  -0.031270  -0.019110   0.113331   0.080693
                 12         13         14         15         16         17    
      0      -0.042547   0.084285   0.056178  -0.106073  -0.178409  -0.085330
      1       0.093610  -0.085073  -0.122384  -0.153784   0.003027  -0.024671
      2      -0.024917   0.028345  -0.060003   0.109644   0.058151   0.081420
      3       0.029465   0.025651  -0.128684   0.101017  -0.002184  -0.021752
      4       0.082022   0.022825   0.214943   0.036858  -0.005811  -0.002608
      5      -0.067346   0.056114   0.029767  -0.016241  -0.028995   0.039607
      6       0.159644   0.001309  -0.015958   0.101958   0.007852  -0.001860
      7       0.029027  -0.010296   0.116337   0.075960  -0.004950   0.001790
      8      -0.030016   0.046475   0.003440   0.059656  -0.059461  -0.070065
      9       0.275288  -0.080018   0.056895  -0.127341   0.015862   0.052836
     10      -0.011911  -0.007782  -0.077757  -0.098357   0.023538   0.045715
     11      -0.047259   0.066183   0.023507   0.148529  -0.068578  -0.096905
     12      -0.005114   0.126791  -0.176195   0.006721   0.060430   0.005354
     13       0.016578   0.244854   0.075094  -0.062454   0.024878   0.016121
     14      -0.002185  -0.026880   0.200889  -0.120693   0.054965   0.089427
     15      -0.230396   0.009125   0.027442  -0.071862   0.009792   0.143931
     16      -0.043113  -0.051317  -0.006434   0.045067  -0.029922  -0.077717
     17       0.174646   0.032134   0.022136  -0.077509   0.166471   0.005218
     18      -0.151728  -0.018198   0.044426  -0.053605   0.112072  -0.038790
     19      -0.048003  -0.071919  -0.045066   0.035111  -0.035046  -0.012077
     20       0.040106   0.000189  -0.023092  -0.014646  -0.002526   0.086598
     21      -0.159458  -0.051065   0.028298  -0.022945   0.074888  -0.069436
     22      -0.168297  -0.053691   0.029868  -0.048007   0.126826  -0.075464
     23      -0.058371  -0.075583  -0.022071   0.019559  -0.004660  -0.030185
     24      -0.074618  -0.066279  -0.035785   0.027658  -0.035809   0.009184
     25       0.097117  -0.031781  -0.103583   0.055120  -0.122650   0.114116
     26      -0.020159  -0.089324  -0.049345   0.053507  -0.073364   0.010847
     27       0.185432  -0.010216   0.112641   0.179865  -0.003319  -0.007201
     28      -0.042431   0.033751   0.006044   0.149565   0.003254  -0.001550
     29       0.032474   0.002032  -0.074159  -0.185936  -0.052288  -0.072230
     30       0.054822  -0.117645  -0.217587   0.198425  -0.004155  -0.038813
     31       0.075515   0.049286   0.288078   0.077689  -0.003378  -0.001484
     32      -0.063606   0.042838  -0.157594  -0.175911  -0.035078   0.044475
     33       0.160114   0.161872  -0.191761   0.006688   0.154823  -0.003669
     34       0.005004   0.592211  -0.138205  -0.196972   0.042676   0.089841
     35       0.104198   0.215220   0.055949  -0.204733   0.132653   0.132836
     36      -0.036329   0.245699  -0.376833  -0.083785   0.123754   0.029090
     37       0.039224   0.298874   0.099884  -0.069546   0.012224   0.025565
     38      -0.057386  -0.420523   0.377817   0.031493   0.018206   0.009623
     39      -0.243548  -0.012645  -0.058434  -0.030589  -0.118178   0.261042
     40      -0.177839  -0.081014  -0.018647   0.044063  -0.321230   0.302770
     41       0.377220   0.024810  -0.210998   0.049468   0.290835  -0.309710
     42      -0.449744  -0.094964   0.187630  -0.136752  -0.162954   0.417668
     43       0.126085  -0.086134  -0.063054   0.088273   0.250462  -0.500323
     44       0.107896  -0.056264   0.101701  -0.099067   0.188098  -0.021102
     45      -0.027345   0.084561   0.063374  -0.129739  -0.202984  -0.101626
     46      -0.123277  -0.087616  -0.229622   0.248109   0.381361   0.226079
     47       0.049958  -0.010988  -0.202280   0.303013   0.248738   0.178768
     48      -0.103178   0.132668   0.207569  -0.262367  -0.370209  -0.181230
     49       0.311750  -0.157476  -0.158118  -0.535820  -0.289775  -0.226480
     50      -0.063687   0.058453   0.028647   0.025082  -0.049183   0.028457
                 18         19         20         21         22         23    
      0       0.127236   0.018255  -0.083399  -0.010324  -0.008429   0.025235
      1      -0.091438  -0.015129   0.063570  -0.000558  -0.001731  -0.000795
      2       0.262640   0.002065  -0.130868   0.012889   0.030305   0.051885
      3       0.003259  -0.079324  -0.160109  -0.031264  -0.088056   0.008223
      4      -0.071281  -0.058921  -0.290645  -0.032724  -0.037989  -0.135091
      5       0.216730   0.058337   0.031661   0.025525   0.063331   0.008512
      6       0.034705   0.011984   0.123629  -0.224103  -0.213903   0.095104
      7      -0.062489   0.014334  -0.072597   0.252154   0.121676   0.226159
      8      -0.096593   0.017671   0.079814   0.012171   0.085326  -0.198680
      9       0.109081   0.032407   0.028850   0.070627   0.123168  -0.141398
     10       0.123056   0.022285   0.077451  -0.052353   0.028828  -0.148179
     11      -0.154973   0.022686   0.110580   0.008450   0.058107  -0.139206
     12      -0.090097  -0.109802  -0.060029   0.058672   0.066639  -0.128936
     13       0.023586  -0.055721  -0.001066  -0.089412  -0.031310  -0.050654
     14       0.006436  -0.073175   0.087578   0.019269  -0.158462  -0.001877
     15      -0.134552  -0.110126   0.015649   0.016124   0.093993  -0.087355
     16       0.121886  -0.312320   0.101624  -0.029727   0.072898   0.051847
     17      -0.094602  -0.021184   0.047544   0.018650  -0.021453  -0.006073
     18      -0.038898   0.055912   0.000010  -0.098790   0.141108   0.147509
     19       0.030521  -0.034170   0.024075   0.100196  -0.053244   0.057107
     20      -0.109904   0.061932  -0.027155  -0.196320   0.273674   0.195619
     21       0.025379  -0.016398   0.032423   0.030344   0.003546   0.100510
     22      -0.020699   0.207829  -0.047740  -0.029739  -0.027816  -0.019834
     23       0.022094   0.073751  -0.024578   0.045850  -0.105946  -0.115729
     24      -0.009641   0.126443  -0.042245   0.021501  -0.106481  -0.137114
     25      -0.069199   0.117726  -0.054583  -0.032722   0.036130   0.000229
     26       0.021458  -0.040909   0.007267   0.049149  -0.015877   0.014494
     27      -0.037797   0.041003   0.096594   0.043618  -0.000937   0.116668
     28       0.008839   0.033442   0.128611  -0.073850  -0.064085   0.053786
     29      -0.111657  -0.061676  -0.136321  -0.026538  -0.124079   0.215216
     30      -0.038531  -0.028272  -0.201409   0.260746   0.040060   0.304263
     31      -0.114855  -0.074246  -0.314118  -0.023898  -0.034288  -0.175019
     32       0.382649   0.074646   0.106272  -0.130857   0.003595   0.000910
     33      -0.274695  -0.102880  -0.115856   0.058681  -0.196354  -0.266313
     34       0.106327   0.268017   0.276367   0.411208  -0.152935   0.357544
     35      -0.070817   0.137108   0.225483   0.331477  -0.409572   0.165355
     36      -0.089047  -0.151403   0.315231   0.233553   0.083306   0.171138
     37       0.026378   0.049219  -0.078881  -0.025529  -0.104769  -0.081618
     38      -0.007589  -0.481215  -0.099770  -0.486735   0.163569  -0.276450
     39      -0.187282  -0.161803   0.020748   0.152074   0.030496  -0.150248
     40      -0.049340  -0.387101   0.199085   0.120885  -0.206219   0.087317
     41       0.054011  -0.050491  -0.106747   0.154614   0.270044  -0.261855
     42      -0.225726  -0.162880   0.204412   0.132607  -0.334321   0.031500
     43       0.346108  -0.321888   0.032671   0.123543   0.124530  -0.186626
     44      -0.042319  -0.061669   0.141357   0.173189  -0.279728  -0.040358
     45       0.128580   0.024683  -0.075425  -0.011635  -0.002515   0.023952
     46      -0.082404  -0.090286  -0.017610   0.029604  -0.050347   0.028948
     47       0.180886  -0.161627  -0.378334  -0.028105  -0.224661   0.025258
     48       0.225426   0.173836   0.139430   0.010043   0.192793   0.096925
     49      -0.131259   0.038682   0.215776  -0.022512   0.017418   0.010070
     50       0.322921   0.092836  -0.001194   0.024841   0.147778   0.096337
                 24         25         26         27         28         29    
      0       0.007884  -0.063553  -0.027298   0.038579   0.059951  -0.032558
      1       0.017184  -0.002084  -0.012276  -0.009968   0.002834  -0.019461
      2       0.005834   0.006242   0.066752  -0.027019  -0.037214  -0.140660
      3       0.028590  -0.151606  -0.048154   0.026141  -0.013799  -0.017345
      4      -0.147788   0.017399   0.090837   0.049661  -0.068166   0.107287
      5      -0.008575   0.089887  -0.015456  -0.013147   0.034041   0.202511
      6      -0.068124   0.094827   0.023049   0.027918  -0.024665   0.023064
      7       0.157801   0.039064  -0.036876  -0.050364   0.046088  -0.021691
      8      -0.037064  -0.093924   0.001639   0.011073  -0.005639  -0.016107
      9      -0.009732  -0.064975  -0.003271  -0.002180   0.001502  -0.002545
     10      -0.049777  -0.040370   0.007320   0.011471  -0.010437   0.006166
     11      -0.021397  -0.066469  -0.006348   0.008075  -0.000908  -0.008904
     12       0.019854   0.091271   0.000455  -0.151882  -0.015715   0.160817
     13       0.057182  -0.014084  -0.074706  -0.059289   0.052719  -0.156065
     14       0.079764  -0.051317  -0.126716  -0.046550  -0.077298   0.122899
     15      -0.033044   0.166406  -0.070509   0.128896  -0.020960  -0.136991
     16       0.223629  -0.042642   0.071741   0.057540  -0.024223   0.037390
     17      -0.040309   0.003384   0.114129   0.031245   0.104751  -0.179552
     18      -0.047403  -0.061834   0.011630   0.010767  -0.016002   0.044189
     19      -0.353689  -0.009164  -0.051081  -0.056128   0.005964  -0.038649
     20       0.029805  -0.062113   0.018416   0.043285  -0.028309   0.088161
     21      -0.218108  -0.055584   0.013218  -0.049211   0.028239   0.009130
     22       0.102771  -0.020275   0.026680  -0.012060   0.012977   0.018832
[...]
     13       0.039303  -0.039116  -0.012241  -0.025939   0.029864   0.005099
     14       0.008688  -0.054410   0.043297   0.000068   0.062117   0.002706
     15       0.012168   0.031806   0.034280  -0.023442  -0.000529   0.003500
     16       0.021581  -0.030298  -0.032038   0.060379   0.041534   0.000546
     17      -0.001580   0.033247   0.050173  -0.010254  -0.006242  -0.004215
     18       0.006827  -0.073362  -0.011992  -0.133247  -0.053523  -0.000763
     19       0.009581  -0.128908  -0.029179  -0.240673  -0.094497   0.000691
     20      -0.002764  -0.023632  -0.003427  -0.054591  -0.021430   0.000499
     21      -0.009808   0.089485   0.015474   0.161338   0.061762  -0.000051
     22      -0.003763   0.033090   0.006682   0.061506   0.025227  -0.000029
     23       0.003266  -0.027961  -0.005571  -0.052358  -0.020271  -0.000045
     24       0.003109  -0.039987  -0.008516  -0.071667  -0.024656   0.000370
     25      -0.004668   0.058595   0.012480   0.104573   0.037940  -0.000691
     26      -0.002231   0.049865   0.009500   0.088693   0.032254   0.000071
     27      -0.016594  -0.102382   0.046076   0.093393  -0.048061  -0.012903
     28      -0.009982  -0.082858   0.037521   0.078170  -0.040696  -0.006215
     29      -0.005372  -0.035311   0.015199   0.031069  -0.014987  -0.003542
     30       0.765528  -0.151964   0.044912   0.112134  -0.044327  -0.002130
     31      -0.168742   0.034554   0.006044  -0.080993   0.035829  -0.004362
     32       0.068028  -0.084885  -0.011905   0.155993  -0.083601  -0.028594
     33       0.266382   0.039767  -0.057925  -0.250748   0.001042   0.020210
     34      -0.136959   0.366783  -0.237893   0.335647  -0.540532  -0.019447
     35       0.051482   0.238477  -0.162153   0.002395  -0.283567   0.017666
     36      -0.431403  -0.234370   0.031258  -0.414557   0.273225   0.009531
     37       0.183550  -0.047353   0.067353   0.093519   0.082203   0.002832
     38      -0.029230   0.373526  -0.375114   0.177751  -0.600183  -0.007544
     39      -0.022748   0.001911   0.007970  -0.161672  -0.042154   0.010408
     40      -0.035306   0.210107   0.293355  -0.272747  -0.140708  -0.008183
     41      -0.007151  -0.442953  -0.560389   0.180675   0.206658   0.030785
     42      -0.039109  -0.295078  -0.443741   0.368108   0.146512  -0.000396
     43      -0.050508   0.341071   0.367121  -0.220794  -0.192498  -0.011099
     44      -0.074537   0.000558  -0.069750   0.109264  -0.025288  -0.012505
     45       0.022437  -0.007154   0.007004   0.001873  -0.006962   0.054474
     46       0.001381   0.030402  -0.016103  -0.022575   0.019536  -0.075337
     47       0.148673   0.098647  -0.042842  -0.147565   0.063873  -0.696738
     48      -0.056924   0.071600  -0.058863  -0.057683   0.050896  -0.620673
     49      -0.004455   0.012510  -0.005466  -0.015901  -0.002422  -0.030196
     50      -0.057762   0.041709  -0.034139  -0.016625   0.023865  -0.318838
                 42         43         44         45         46         47    
      0      -0.005941   0.011379  -0.000109   0.000790   0.000220   0.000011
      1      -0.003110  -0.000740   0.000365  -0.001312  -0.000221  -0.001053
      2      -0.006213   0.001351   0.000720   0.001384   0.000124  -0.000025
      3       0.003864  -0.015241   0.001427   0.009002  -0.000029   0.001364
      4       0.010013  -0.009512   0.004842   0.078578   0.004496   0.011738
      5       0.016409  -0.024904  -0.001075   0.021044   0.001008   0.002419
      6      -0.163887   0.329685  -0.001110   0.000628  -0.000434  -0.000356
      7      -0.134833   0.267673  -0.001103   0.001401  -0.000373  -0.000169
      8      -0.282911   0.571049   0.001249   0.002259  -0.000115   0.000878
      9       0.035506  -0.074227   0.000137  -0.000146   0.000005  -0.000060
     10       0.029517  -0.064089  -0.000000  -0.000545   0.000076   0.000110
     11       0.152798  -0.309315  -0.000414  -0.000981   0.000103  -0.000303
     12       0.004951   0.002216   0.012431  -0.005985   0.007640   0.044297
     13       0.009331  -0.004480  -0.025903  -0.006951   0.009599   0.080311
     14      -0.007113   0.007635  -0.052453   0.007861  -0.008615  -0.028504
     15       0.037631   0.023934  -0.004402  -0.000273   0.021475  -0.007755
     16      -0.007696  -0.012803   0.003796   0.001042  -0.050824   0.009233
     17      -0.024571  -0.007209  -0.001059  -0.000799   0.024472  -0.001040
     18      -0.557738  -0.282395   0.000212  -0.000644   0.002494  -0.000599
     19       0.196936   0.100405   0.001474   0.000663   0.000513  -0.000209
     20       0.383520   0.193495   0.000385   0.000520  -0.000358  -0.000050
     21       0.201349   0.102969  -0.000367   0.000219  -0.000790   0.000077
     22       0.036487   0.018823  -0.000349  -0.000084   0.000054  -0.000255
     23      -0.084379  -0.043161   0.000151  -0.000126   0.000269  -0.000036
     24       0.190488   0.098452   0.000114   0.000600  -0.000523   0.000169
     25      -0.174430  -0.086694  -0.000335  -0.000400  -0.000200   0.000074
     26      -0.184225  -0.094410  -0.000100   0.000115  -0.000004  -0.000105
     27       0.078758  -0.159064   0.000545  -0.000510   0.000186  -0.000097
     28       0.063374  -0.127807   0.000439  -0.000337   0.000216  -0.000066
     29       0.047511  -0.096885   0.000035  -0.000485   0.000105   0.000090
     30       0.114613  -0.063776  -0.007109  -0.128913  -0.006732  -0.016396
     31       0.007422  -0.030576  -0.075203  -0.934399  -0.045304  -0.112362
     32      -0.039330   0.196531  -0.020353  -0.284191  -0.013644  -0.032012
     33      -0.019670  -0.046105  -0.348678   0.070262  -0.076387  -0.329865
     34      -0.019529   0.003581  -0.334869   0.065847  -0.069804  -0.305349
     35      -0.041419  -0.016960   0.514761  -0.107629   0.115779   0.490494
     36      -0.005339   0.046586   0.196713   0.010933  -0.014031  -0.195427
     37       0.003820  -0.011073   0.654067   0.029227  -0.056290  -0.665636
     38       0.016693  -0.019043   0.135004   0.010056  -0.011521  -0.150863
     39      -0.177413  -0.080617   0.063959   0.009947  -0.599675   0.129757
     40      -0.244139  -0.071718  -0.038650  -0.006105   0.359189  -0.081708
     41      -0.068564  -0.097597  -0.025119  -0.005148   0.209561  -0.045370
     42       0.117943  -0.056707  -0.015313  -0.011082   0.339673  -0.033731
     43       0.150976   0.149180  -0.004890  -0.008695   0.248466  -0.023195
     44       0.140431   0.027946   0.016573   0.017619  -0.506507   0.051157
     45      -0.003933   0.006193  -0.003065   0.004675  -0.000059   0.001030
     46      -0.024192   0.033860   0.001100   0.002953  -0.000025   0.000349
     47       0.104185  -0.196833   0.002718   0.001835   0.000973   0.000671
     48       0.068698  -0.151326   0.006223  -0.001905   0.000820   0.002791
     49       0.005161  -0.006553  -0.001430   0.000577   0.000503   0.002357
     50       0.041490  -0.100454   0.002589   0.003650   0.000818   0.005225
                  48         49         50    
      0       0.000090   0.013980  -0.078042
      1      -0.000105   0.004169  -0.003253
      2       0.000035   0.049915   0.035334
      3      -0.000275  -0.001239  -0.001350
      4       0.000218  -0.000697  -0.000176
      5      -0.000167  -0.000711   0.000372
      6      -0.000241   0.000401   0.000448
      7       0.000018   0.000524   0.000399
      8       0.000217  -0.000512  -0.000400
      9       0.000133   0.000011  -0.000008
     10       0.000140   0.000044  -0.000151
     11      -0.000173   0.000497   0.000251
     12       0.003498  -0.000124   0.000131
     13       0.003847   0.000700  -0.000073
     14      -0.004527  -0.000157  -0.000446
     15       0.075715  -0.000041   0.000037
     16      -0.002886  -0.000070   0.000060
     17      -0.062715  -0.000040   0.000128
     18       0.003853  -0.000069  -0.000057
     19      -0.000462  -0.000051   0.000045
     20      -0.002131   0.000001   0.000037
     21      -0.001268   0.000050   0.000004
     22       0.000146  -0.000008   0.000039
     23       0.000628  -0.000007  -0.000023
     24      -0.000947   0.000032   0.000015
     25       0.000183   0.000014  -0.000004
     26       0.000612  -0.000022  -0.000010
     27       0.000023   0.000124  -0.000383
     28       0.000110  -0.000120  -0.000154
     29      -0.000001  -0.000267   0.000148
     30      -0.000481  -0.002637  -0.001503
     31      -0.001873  -0.004634   0.000628
     32      -0.000733  -0.005112   0.001765
     33      -0.030197   0.002862   0.001330
     34      -0.031466  -0.001128  -0.001631
     35       0.049374  -0.000421   0.001971
     36      -0.005525  -0.000522   0.000365
     37      -0.014575  -0.003758  -0.000092
     38      -0.001242  -0.000237   0.000386
     39      -0.535043   0.000641   0.000085
     40       0.323810  -0.000267   0.000017
     41       0.189027   0.000042  -0.000430
     42      -0.381826  -0.000355  -0.000050
     43      -0.292296   0.000351   0.000303
     44       0.572348  -0.000369  -0.000423
     45       0.000043  -0.597022   0.801219
     46      -0.000026  -0.040029   0.054904
     47       0.000149   0.011086   0.011991
     48       0.000843   0.412115   0.298359
     49      -0.000071  -0.012196  -0.007669
     50      -0.000311  -0.684882  -0.508375


-----------
IR SPECTRUM
-----------

 Mode    freq (cm**-1)   T**2         TX         TY         TZ
-------------------------------------------------------------------
  10:        79.94    4.239229  (  0.150010   0.544687   1.979910)
  11:       107.51    8.584750  (  2.522809   0.111578   1.485845)
  12:       142.15    5.146524  ( -1.979452   0.566771   0.952399)
  13:       236.86    4.821377  (  1.972669   0.361368   0.894072)
  14:       323.04    2.886869  ( -1.356681   0.750255   0.695272)
  15:       346.48    0.946634  ( -0.735581  -0.224443  -0.595970)
  16:       400.22    1.097185  ( -0.447474   0.029913   0.946603)
  17:       433.72    5.940082  (  2.110990   0.395447   1.152140)
  18:       508.87    1.225511  ( -0.923239  -0.202025   0.576477)
  19:       583.55    3.406028  ( -0.946911  -1.563834  -0.252611)
  20:       625.19    1.214996  (  0.536564  -0.918461   0.289006)
  21:       732.62    4.727703  ( -0.346698   2.145451  -0.067392)
  22:       759.26    8.457830  ( -1.850721  -0.059848   2.242561)
  23:       799.96   50.960730  (  4.940820   4.782640  -1.917129)
  24:       826.54   41.989054  ( -1.727919  -5.652213  -2.656284)
  25:       836.86   27.551504  (  2.482161   0.096641  -4.623964)
  26:       943.89    2.123215  ( -1.127295  -0.010733  -0.923205)
  27:       971.17    1.039561  ( -0.750524  -0.430453   0.539431)
  28:      1035.76   13.621960  ( -3.649574   0.141603   0.531522)
  29:      1067.91   17.743026  (  2.072753   1.994352   3.077219)
  30:      1101.23   12.739350  ( -2.239846  -0.199730  -2.771741)
  31:      1128.48   24.887621  ( -3.893610   0.003544  -3.118879)
  32:      1153.63    5.151640  ( -0.007996  -1.815733  -1.361870)
  33:      1220.00   23.118883  (  3.805190   2.625547   1.321331)
  34:      1243.16    6.575112  (  2.291226   0.174788   1.137913)
  35:      1264.33   52.459977  ( -5.416663  -3.344650   3.454426)
  36:      1293.60   17.587030  (  2.186509   3.293240  -1.400279)
  37:      1314.18   35.457331  (  2.256846  -1.395844  -5.330628)
  38:      1326.23   72.887630  ( -7.498781  -3.891619   1.229319)
  39:      1334.47  266.609664  (-11.002263 -12.058859  -0.379187)
  40:      1357.80   19.604355  (  1.436872  -2.706632  -3.195919)
  41:      1463.97   67.846393  ( -1.696377   0.612227  -8.037032)
  42:      1684.96  332.163148  (-18.124690   0.989720   1.636834)
  43:      1699.30  355.131234  (  1.995730   7.590493  17.132796)
  44:      2866.14   83.618154  (  1.414304  -2.567026  -8.661886)
  45:      2889.59   67.465630  (  0.006619   6.778392   4.638856)
  46:      2934.27   69.376935  (  6.960116  -4.564886   0.309082)
  47:      2972.25   91.076576  (  2.607802   8.693092  -2.950609)
  48:      3051.74   38.352297  (  5.060421  -1.070403  -3.405683)
  49:      3509.28   61.434932  ( -1.330151  -2.015606   7.456739)
  50:      3660.33    3.842467  (  1.401154   0.321996   1.332498)

The first frequency considered to be a vibration is 10
The total number of vibrations considered is 41


--------------------------
THERMOCHEMISTRY AT 298.15K
--------------------------

Temperature         ... 298.15 K
Pressure            ... 1.00 atm
Total Mass          ... 145.11 AMU

Throughout the following assumptions are being made:
  (1) The electronic state is orbitally nondegenerate
  (2) There are no thermally accessible electronically excited states
  (3) Hindered rotations indicated by low frequency modes are not
      treated as such but are treated as vibrations and this may
      cause some error
  (4) All equations used are the standard statistical mechanics
      equations for an ideal gas
  (5) All vibrations are strictly harmonic

freq.      79.94  E(vib)   ...       0.49 
freq.     107.51  E(vib)   ...       0.45 
freq.     142.15  E(vib)   ...       0.41 
freq.     236.86  E(vib)   ...       0.32 
freq.     323.04  E(vib)   ...       0.25 
freq.     346.48  E(vib)   ...       0.23 
freq.     400.22  E(vib)   ...       0.19 
freq.     433.72  E(vib)   ...       0.17 
freq.     508.87  E(vib)   ...       0.14 
freq.     583.55  E(vib)   ...       0.11 
freq.     625.19  E(vib)   ...       0.09 
freq.     732.62  E(vib)   ...       0.06 
freq.     759.26  E(vib)   ...       0.06 
freq.     799.96  E(vib)   ...       0.05 
freq.     826.54  E(vib)   ...       0.04 
freq.     836.86  E(vib)   ...       0.04 
freq.     943.89  E(vib)   ...       0.03 
freq.     971.17  E(vib)   ...       0.03 
freq.    1035.76  E(vib)   ...       0.02 
freq.    1067.91  E(vib)   ...       0.02 
freq.    1101.23  E(vib)   ...       0.02 
freq.    1128.48  E(vib)   ...       0.01 
freq.    1153.63  E(vib)   ...       0.01 
freq.    1220.00  E(vib)   ...       0.01 
freq.    1243.16  E(vib)   ...       0.01 
freq.    1264.33  E(vib)   ...       0.01 
freq.    1293.60  E(vib)   ...       0.01 
freq.    1314.18  E(vib)   ...       0.01 
freq.    1326.23  E(vib)   ...       0.01 
freq.    1334.47  E(vib)   ...       0.01 
freq.    1357.80  E(vib)   ...       0.01 
freq.    1463.97  E(vib)   ...       0.00 
freq.    1684.96  E(vib)   ...       0.00 
freq.    1699.30  E(vib)   ...       0.00 
freq.    2866.14  E(vib)   ...       0.00 
freq.    2889.59  E(vib)   ...       0.00 
freq.    2934.27  E(vib)   ...       0.00 
freq.    2972.25  E(vib)   ...       0.00 
freq.    3051.74  E(vib)   ...       0.00 
freq.    3509.28  E(vib)   ...       0.00 
freq.    3660.33  E(vib)   ...       0.00 

------------
INNER ENERGY
------------

The inner energy is: U= E(el) + E(ZPE) + E(vib) + E(rot) + E(trans)
    E(el)   - is the total energy from the electronic structure calculation
              = E(kin-el) + E(nuc-el) + E(el-el) + E(nuc-nuc)
    E(ZPE)  - the the zero temperature vibrational energy from the frequency calculation
    E(vib)  - the the finite temperature correction to E(ZPE) due to population
              of excited vibrational states
    E(rot)  - is the rotational thermal energy
    E(trans)- is the translational thermal energy

Summary of contributions to the inner energy U:
Electronic energy                ...   -549.34274047 Eh
Zero point energy                ...      0.11898971 Eh      74.67 kcal/mol
Thermal vibrational correction   ...      0.00526150 Eh       3.30 kcal/mol
Thermal rotational correction    ...      0.00141627 Eh       0.89 kcal/mol
Thermal translational correction ...      0.00141627 Eh       0.89 kcal/mol
-----------------------------------------------------------------------
Total thermal energy                   -549.21565672 Eh


Summary of corrections to the electronic energy:
(perhaps to be used in another calculation)
Total thermal correction                  0.00809404 Eh       5.08 kcal/mol
Non-thermal (ZPE) correction              0.11898971 Eh      74.67 kcal/mol
-----------------------------------------------------------------------
Total correction                          0.12708375 Eh      79.75 kcal/mol


--------
ENTHALPY
--------

The enthalpy is H = U + kB*T
                kB is Boltzmann's constant
Total free energy                 ...   -549.21565672 Eh 
Thermal Enthalpy correction       ...      0.00094421 Eh       0.59 kcal/mol
-----------------------------------------------------------------------
Total Enthalpy                    ...   -549.21471252 Eh


Note: Only C1 symmetry has been detected, increase convergence thresholds 
      if your molecule has a higher symmetry. Symmetry factor of 1.0 is   
      used for the rotational entropy correction. 
 

Note: Rotational entropy computed according to Herzberg 
Infrared and Raman Spectra, Chapter V,1, Van Nostrand Reinhold, 1945 
Point Group:  C1, Symmetry Number:   1  
Rotational constants in cm-1:     0.079366     0.025900     0.022356 

Vibrational entropy computed according to the QRRHO of S. Grimme
Chem.Eur.J. 2012 18 9955


-------
ENTROPY
-------

The entropy contributions are T*S = T*(S(el)+S(vib)+S(rot)+S(trans))
     S(el)   - electronic entropy
     S(vib)  - vibrational entropy
     S(rot)  - rotational entropy
     S(trans)- translational entropy
The entropies will be listed as mutliplied by the temperature to get
units of energy

Electronic entropy                ...      0.00000000 Eh      0.00 kcal/mol
Vibrational entropy               ...      0.00886404 Eh      5.56 kcal/mol
Rotational entropy                ...      0.01422599 Eh      8.93 kcal/mol
Translational entropy             ...      0.01939859 Eh     12.17 kcal/mol
-----------------------------------------------------------------------
Final entropy term                ...      0.04248862 Eh     26.66 kcal/mol

In case the symmetry of your molecule has not been determined correctly
or in case you have a reason to use a different symmetry number we print 
out the resulting rotational entropy values for sn=1,12 :
 --------------------------------------------------------
|  sn= 1 | S(rot)=       0.01422599 Eh      8.93 kcal/mol|
|  sn= 2 | S(rot)=       0.01357153 Eh      8.52 kcal/mol|
|  sn= 3 | S(rot)=       0.01318870 Eh      8.28 kcal/mol|
|  sn= 4 | S(rot)=       0.01291708 Eh      8.11 kcal/mol|
|  sn= 5 | S(rot)=       0.01270639 Eh      7.97 kcal/mol|
|  sn= 6 | S(rot)=       0.01253424 Eh      7.87 kcal/mol|
|  sn= 7 | S(rot)=       0.01238870 Eh      7.77 kcal/mol|
|  sn= 8 | S(rot)=       0.01226262 Eh      7.69 kcal/mol|
|  sn= 9 | S(rot)=       0.01215141 Eh      7.63 kcal/mol|
|  sn=10 | S(rot)=       0.01205193 Eh      7.56 kcal/mol|
|  sn=11 | S(rot)=       0.01196194 Eh      7.51 kcal/mol|
|  sn=12 | S(rot)=       0.01187979 Eh      7.45 kcal/mol|
 --------------------------------------------------------


-------------------
GIBBS FREE ENERGY
-------------------

The Gibbs free energy is G = H - T*S

Total enthalpy                    ...   -549.21471252 Eh 
Total entropy correction          ...     -0.04248862 Eh    -26.66 kcal/mol
-----------------------------------------------------------------------
Final Gibbs free energy         ...   -549.25720113 Eh

For completeness - the Gibbs free energy minus the electronic energy
G-E(el)                           ...      0.08553934 Eh     53.68 kcal/mol


Timings for individual modules:

Sum of individual times         ...       69.628 sec (=   1.160 min)
GTO integral calculation        ...        0.713 sec (=   0.012 min)   1.0 %
SCF iterations                  ...        5.773 sec (=   0.096 min)   8.3 %
Analytical frequency calculation...       63.142 sec (=   1.052 min)  90.7 %
                             ****ORCA TERMINATED NORMALLY****
TOTAL RUN TIME: 0 days 0 hours 1 minutes 10 seconds 482 msec
