
                                 *****************
                                 * O   R   C   A *
                                 *****************

           --- An Ab Initio, DFT and Semiempirical electronic structure package ---

                  #######################################################
                  #                        -***-                        #
                  #          Department of theory and spectroscopy      #
                  #               Directorship: Frank Neese             #
                  #        Max Planck Institute fuer Kohlenforschung    #
                  #                Kaiser Wilhelm Platz 1               #
                  #                 D-45470 Muelheim/Ruhr               #
                  #                      Germany                        #
                  #                                                     #
                  #                  All rights reserved                #
                  #                        -***-                        #
                  #######################################################


                         Program Version 4.2.0 -  RELEASE  -


 With contributions from (in alphabetic order):
   Daniel Aravena         : Magnetic Suceptibility
   Michael Atanasov       : Ab Initio Ligand Field Theory (pilot matlab implementation)
   Alexander A. Auer      : GIAO ZORA, VPT2
   Ute Becker             : Parallelization
   Giovanni Bistoni       : ED, misc. LED, open-shell LED, HFLED
   Martin Brehm           : Molecular dynamics
   Dmytro Bykov           : SCF Hessian
   Vijay G. Chilkuri      : MRCI spin determinant printing, contributions to CSF-ICE
   Dipayan Datta          : RHF DLPNO-CCSD density
   Achintya Kumar Dutta   : EOM-CC, STEOM-CC
   Dmitry Ganyushin       : Spin-Orbit,Spin-Spin,Magnetic field MRCI
   Miquel Garcia          : C-PCM Hessian, Gaussian charge scheme
   Yang Guo               : DLPNO-NEVPT2, CIM, IAO-localization
   Andreas Hansen         : Spin unrestricted coupled pair/coupled cluster methods
   Benjamin Helmich-Paris : CASSCF linear response (MC-RPA)
   Lee Huntington         : MR-EOM, pCC
   Robert Izsak           : Overlap fitted RIJCOSX, COSX-SCS-MP3, EOM
   Christian Kollmar      : KDIIS, OOCD, Brueckner-CCSD(T), CCSD density
   Simone Kossmann        : Meta GGA functionals, TD-DFT gradient, OOMP2, MP2 Hessian
   Martin Krupicka        : AUTO-CI
   Lucas Lang             : DCDCAS
   Dagmar Lenk            : GEPOL surface, SMD
   Dimitrios Liakos       : Extrapolation schemes; Compound Job, initial MDCI parallelization
   Dimitrios Manganas     : Further ROCIS development; embedding schemes
   Dimitrios Pantazis     : SARC Basis sets
   Taras Petrenko         : DFT Hessian,TD-DFT gradient, ASA, ECA, R-Raman, ABS, FL, XAS/XES, NRVS
   Peter Pinski           : DLPNO-MP2, DLPNO-MP2 Gradient
   Christoph Reimann      : Effective Core Potentials
   Marius Retegan         : Local ZFS, SOC
   Christoph Riplinger    : Optimizer, TS searches, QM/MM, DLPNO-CCSD(T), (RO)-DLPNO pert. Triples
   Tobias Risthaus        : Range-separated hybrids, TD-DFT gradient, RPA, STAB
   Michael Roemelt        : Original ROCIS implementation
   Masaaki Saitow         : Open-shell DLPNO-CCSD energy and density
   Barbara Sandhoefer     : DKH picture change effects
   Avijit Sen             : IP-ROCIS
   Kantharuban Sivalingam : CASSCF convergence, NEVPT2, FIC-MRCI
   Bernardo de Souza      : ESD, SOC TD-DFT
   Georgi Stoychev        : AutoAux, RI-MP2 NMR
   Willem Van den Heuvel  : Paramagnetic NMR
   Boris Wezisla          : Elementary symmetry handling
   Frank Wennmohs         : Technical directorship


 We gratefully acknowledge several colleagues who have allowed us to
 interface, adapt or use parts of their codes:
   Stefan Grimme, W. Hujo, H. Kruse,             : VdW corrections, initial TS optimization,
                  C. Bannwarth                     DFT functionals, gCP, sTDA/sTD-DF
   Ed Valeev, F. Pavosevic, A. Kumar             : LibInt (2-el integral package), F12 methods
   Garnet Chan, S. Sharma, J. Yang, R. Olivares  : DMRG
   Ulf Ekstrom                                   : XCFun DFT Library
   Mihaly Kallay                                 : mrcc  (arbitrary order and MRCC methods)
   Andreas Klamt, Michael Diedenhofen            : otool_cosmo (COSMO solvation model)
   Jiri Pittner, Ondrej Demel                    : Mk-CCSD
   Frank Weinhold                                : gennbo (NPA and NBO analysis)
   Christopher J. Cramer and Donald G. Truhlar   : smd solvation model
   Lars Goerigk                                  : TD-DFT with DH, B97 family of functionals
   V. Asgeirsson, H. Jonsson                     : NEB implementation
   FAccTs GmbH                                   : IRC, NEB, NEB-TS, Multilevel, MM, QM/MM, CI optimization
   S Lehtola, MJT Oliveira, MAL Marques          : LibXC Library


 Your calculation uses the libint2 library for the computation of 2-el integrals
 For citations please refer to: http://libint.valeyev.net

 Your ORCA version has been built with support for libXC version: 4.2.3
 For citations please refer to: https://tddft.org/programs/libxc/

 This ORCA versions uses:
   CBLAS   interface :  Fast vector & matrix operations
   LAPACKE interface :  Fast linear algebra routines
   SCALAPACK package :  Parallel linear algebra routines


Your calculation utilizes the atom-pairwise dispersion correction
with the Becke-Johnson damping scheme (D3BJ)
Cite in your paper:
S.Grimme, S.Ehrlich, L.Goerigk, J Comput Chem, (2011), 32, 1456–1465 
S.Grimme, J.Antony, S.Ehrlich and H.Krieg, J.Chem.Phys., 132, (2010), 154104 
   

----- Orbital basis set information -----
Your calculation utilizes the basis: def2-SVP
   F. Weigend and R. Ahlrichs, Phys. Chem. Chem. Phys. 7, 3297 (2005).

----- AuxJ basis set information -----
Your calculation utilizes the auxiliary basis: def2/J
   F. Weigend, Phys. Chem. Chem. Phys. 8, 1057 (2006).

================================================================================
                                        WARNINGS
                       Please study these warnings very carefully!
================================================================================


INFO   : the flag for use of LIBINT has been found!

================================================================================
                                       INPUT FILE
================================================================================
NAME = /scratch/kacsizi/projects/swoose/structure_preparation/swoose/test/preparation_data/glutamine/reference_data/0/37ff300e-d194-4346-afe4-a74fb7c845c4/orca_calc.inp
|  1> ! pbe d3bj def2-SVP
|  2> ! RHF AllowRHF
|  3> ! AnFreq
|  4> %maxcore 256
|  5> %pal
|  6> nprocs 4
|  7> end
|  8> %output
|  9> print[P_Hirshfeld] 1
| 10> end
| 11> %SCF
| 12> TolE 1e-08
| 13> MaxIter 100
| 14> end
| 15> # Orca calculation created by SCINE
| 16> *xyz -1 1
| 17> N      1.0284485635   -0.4859294793    3.2987707885
| 18> C      0.2722813959   -0.5850125090    2.0821624678
| 19> C      1.0889759947    0.0037962164    0.8704669266
| 20> O      0.6421839383   -0.3478183002   -0.2845743186
| 21> C     -1.0799248282    0.1425874517    2.2896844260
| 22> C     -2.0263752251    0.2074758374    1.0500831255
| 23> C     -2.4141583554   -1.1807438468    0.5071598634
| 24> O     -3.4877133409   -1.7147707219    0.7690705490
| 25> O     -1.5074828673   -1.7479973682   -0.2899692551
| 26> O      2.0570331361    0.7467164348    1.1126701650
| 27> H      0.0614721627   -1.6579923244    1.8177820382
| 28> H     -1.6194423004   -0.3720953752    3.1124276208
| 29> H     -0.7735528014    1.1939142454    2.4703907531
| 30> H     -2.9596254353    0.7146594726    1.3530482661
| 31> H     -1.4301093708    0.6684430954    0.2380589998
| 32> H      2.0407207451   -0.4750399295    3.2363028883
| 33> H      0.5741296848   -0.4067500961    4.2013190629
| 34> H     -0.5651483681   -1.3369559524   -0.0808221683
| 35> *
| 36> 
| 37>                          ****END OF INPUT****
================================================================================

                       ****************************
                       * Single Point Calculation *
                       ****************************

---------------------------------
CARTESIAN COORDINATES (ANGSTROEM)
---------------------------------
  N      1.028449   -0.485929    3.298771
  C      0.272281   -0.585013    2.082162
  C      1.088976    0.003796    0.870467
  O      0.642184   -0.347818   -0.284574
  C     -1.079925    0.142587    2.289684
  C     -2.026375    0.207476    1.050083
  C     -2.414158   -1.180744    0.507160
  O     -3.487713   -1.714771    0.769071
  O     -1.507483   -1.747997   -0.289969
  O      2.057033    0.746716    1.112670
  H      0.061472   -1.657992    1.817782
  H     -1.619442   -0.372095    3.112428
  H     -0.773553    1.193914    2.470391
  H     -2.959625    0.714659    1.353048
  H     -1.430109    0.668443    0.238059
  H      2.040721   -0.475040    3.236303
  H      0.574130   -0.406750    4.201319
  H     -0.565148   -1.336956   -0.080822

----------------------------
CARTESIAN COORDINATES (A.U.)
----------------------------
  NO LB      ZA    FRAG     MASS         X           Y           Z
   0 N     7.0000    0    14.007    1.943486   -0.918274    6.233773
   1 C     6.0000    0    12.011    0.514537   -1.105513    3.934717
   2 C     6.0000    0    12.011    2.057866    0.007174    1.644944
   3 O     8.0000    0    15.999    1.213552   -0.657281   -0.537768
   4 C     6.0000    0    12.011   -2.040762    0.269451    4.326876
   5 C     6.0000    0    12.011   -3.829294    0.392073    1.984370
   6 C     6.0000    0    12.011   -4.562098   -2.231283    0.958393
   7 O     8.0000    0    15.999   -6.590823   -3.240447    1.453333
   8 O     8.0000    0    15.999   -2.848730   -3.303236   -0.547962
   9 O     8.0000    0    15.999    3.887229    1.411090    2.102642
  10 H     1.0000    0     1.008    0.116166   -3.133151    3.435110
  11 H     1.0000    0     1.008   -3.060302   -0.703158    5.881636
  12 H     1.0000    0     1.008   -1.461803    2.256171    4.668362
  13 H     1.0000    0     1.008   -5.592882    1.350511    2.556891
  14 H     1.0000    0     1.008   -2.702515    1.263174    0.449866
  15 H     1.0000    0     1.008    3.856403   -0.897695    6.115726
  16 H     1.0000    0     1.008    1.084948   -0.768646    7.939342
  17 H     1.0000    0     1.008   -1.067976   -2.526481   -0.152732

--------------------------------
INTERNAL COORDINATES (ANGSTROEM)
--------------------------------
 N      0   0   0     0.000000000000     0.00000000     0.00000000
 C      1   0   0     1.435876748933     0.00000000     0.00000000
 C      2   1   0     1.575402128785   110.66401245     0.00000000
 O      3   2   1     1.287391233487   114.08368908   163.20907626
 C      2   1   3     1.549493058533   108.28189113   236.48135681
 C      5   2   1     1.560958116220   116.25009290   177.15716436
 C      6   5   2     1.540225735493   113.27314789    58.90714786
 O      7   6   5     1.227315044091   122.49193576    99.70070638
 O      7   6   5     1.333885988315   115.01218242   278.44804219
 O      3   2   1     1.244076962496   118.47919991   342.46316606
 H      2   1   3     1.124999212717   111.32234709   117.40419717
 H      5   2   1     1.110353042822   107.79471777   298.81922957
 H      5   2   1     1.109867840155   103.04486742    63.03160761
 H      6   5   2     1.104526627597   108.27440713   177.81881289
 H      6   5   2     1.107884002354   105.84445047   304.86534583
 H      1   2   3     1.014256274564   118.30402370   333.32079189
 H      1   2   3     1.013542503248   121.59000596   151.92369880
 H      9   7   6     1.049138626590   108.95234933    23.35692712

---------------------------
INTERNAL COORDINATES (A.U.)
---------------------------
 N      0   0   0     0.000000000000     0.00000000     0.00000000
 C      1   0   0     2.713413817549     0.00000000     0.00000000
 C      2   1   0     2.977078574200   110.66401245     0.00000000
 O      3   2   1     2.432816858501   114.08368908   163.20907626
 C      2   1   3     2.928117527039   108.28189113   236.48135681
 C      5   2   1     2.949783346177   116.25009290   177.15716436
 C      6   5   2     2.910604824499   113.27314789    58.90714786
 O      7   6   5     2.319289313374   122.49193576    99.70070638
 O      7   6   5     2.520679211790   115.01218242   278.44804219
 O      3   2   1     2.350964748639   118.47919991   342.46316606
 H      2   1   3     2.125940412912   111.32234709   117.40419717
 H      5   2   1     2.098263162900   107.79471777   298.81922957
 H      5   2   1     2.097346262740   103.04486742    63.03160761
 H      6   5   2     2.087252833783   108.27440713   177.81881289
 H      6   5   2     2.093597352601   105.84445047   304.86534583
 H      1   2   3     1.916666588536   118.30402370   333.32079189
 H      1   2   3     1.915317756227   121.59000596   151.92369880
 H      9   7   6     1.982584680773   108.95234933    23.35692712

---------------------
BASIS SET INFORMATION
---------------------
There are 4 groups of distinct atoms

 Group   1 Type N   : 7s4p1d contracted to 3s2p1d pattern {511/31/1}
 Group   2 Type C   : 7s4p1d contracted to 3s2p1d pattern {511/31/1}
 Group   3 Type O   : 7s4p1d contracted to 3s2p1d pattern {511/31/1}
 Group   4 Type H   : 4s1p contracted to 2s1p pattern {31/1}

Atom   0N    basis set group =>   1
Atom   1C    basis set group =>   2
Atom   2C    basis set group =>   2
Atom   3O    basis set group =>   3
Atom   4C    basis set group =>   2
Atom   5C    basis set group =>   2
Atom   6C    basis set group =>   2
Atom   7O    basis set group =>   3
Atom   8O    basis set group =>   3
Atom   9O    basis set group =>   3
Atom  10H    basis set group =>   4
Atom  11H    basis set group =>   4
Atom  12H    basis set group =>   4
Atom  13H    basis set group =>   4
Atom  14H    basis set group =>   4
Atom  15H    basis set group =>   4
Atom  16H    basis set group =>   4
Atom  17H    basis set group =>   4
---------------------------------
AUXILIARY/J BASIS SET INFORMATION
---------------------------------
There are 4 groups of distinct atoms

 Group   1 Type N   : 12s5p4d2f1g contracted to 6s4p3d1f1g pattern {711111/2111/211/2/1}
 Group   2 Type C   : 12s5p4d2f1g contracted to 6s4p3d1f1g pattern {711111/2111/211/2/1}
 Group   3 Type O   : 12s5p4d2f1g contracted to 6s4p3d1f1g pattern {711111/2111/211/2/1}
 Group   4 Type H   : 5s2p1d contracted to 3s1p1d pattern {311/2/1}

Atom   0N    basis set group =>   1
Atom   1C    basis set group =>   2
Atom   2C    basis set group =>   2
Atom   3O    basis set group =>   3
Atom   4C    basis set group =>   2
Atom   5C    basis set group =>   2
Atom   6C    basis set group =>   2
Atom   7O    basis set group =>   3
Atom   8O    basis set group =>   3
Atom   9O    basis set group =>   3
Atom  10H    basis set group =>   4
Atom  11H    basis set group =>   4
Atom  12H    basis set group =>   4
Atom  13H    basis set group =>   4
Atom  14H    basis set group =>   4
Atom  15H    basis set group =>   4
Atom  16H    basis set group =>   4
Atom  17H    basis set group =>   4


           ************************************************************
           *        Program running with 4 parallel MPI-processes     *
           *              working on a common directory               *
           ************************************************************
------------------------------------------------------------------------------
                           ORCA GTO INTEGRAL CALCULATION
                           -- RI-GTO INTEGRALS CHOSEN --
------------------------------------------------------------------------------

                         BASIS SET STATISTICS AND STARTUP INFO

Gaussian basis set:
 # of primitive gaussian shells          ...  160
 # of primitive gaussian functions       ...  296
 # of contracted shells                  ...   84
 # of contracted basis functions         ...  180
 Highest angular momentum                ...    2
 Maximum contraction depth               ...    5
Auxiliary gaussian basis set:
 # of primitive gaussian shells          ...  304
 # of primitive gaussian functions       ...  828
 # of contracted shells                  ...  190
 # of contracted aux-basis functions     ...  578
 Highest angular momentum                ...    4
 Maximum contraction depth               ...    7
Ratio of auxiliary to basis functions    ...  3.21
Integral package used                  ... LIBINT
 One Electron integrals                  ... done
 Ordering auxiliary basis shells         ... done
 Integral threshhold             Thresh  ...  1.000e-10
 Primitive cut-off               TCut    ...  1.000e-11
 Pre-screening matrix                    ... done
 Shell pair data                         ... 
 Ordering of the shell pairs             ... done (   0.000 sec) 3319 of 3570 pairs
 Determination of significant pairs      ... done (   0.000 sec)
 Creation of shell pair data             ... done (   0.000 sec)
 Storage of shell pair data              ... done (   0.014 sec)
 Shell pair data done in (   0.015 sec)
 Computing two index integrals           ... done
 Cholesky decomposition of the V-matrix  ... done


Timings:
 Total evaluation time                   ...   0.284 sec (  0.005 min)
 One electron matrix time                ...   0.015 sec (  0.000 min) =  5.4%
 Schwartz matrix evaluation time         ...   0.092 sec (  0.002 min) = 32.3%
 Two index repulsion integral time       ...   0.006 sec (  0.000 min) =  2.0%
 Cholesky decomposition of V             ...   0.141 sec (  0.002 min) = 49.7%
 Three index repulsion integral time     ...   0.000 sec (  0.000 min) =  0.0%



           ************************************************************
           *        Program running with 4 parallel MPI-processes     *
           *              working on a common directory               *
           ************************************************************
-------------------------------------------------------------------------------
                                 ORCA SCF
-------------------------------------------------------------------------------

------------
SCF SETTINGS
------------
Hamiltonian:
 Density Functional     Method          .... DFT(GTOs)
 Exchange Functional    Exchange        .... PBE
   PBE kappa parameter   XKappa         ....  0.804000
   PBE mue parameter    XMuePBE         ....  0.219520
 Correlation Functional Correlation     .... PBE
   PBE beta parameter  CBetaPBE         ....  0.066725
 LDA part of GGA corr.  LDAOpt          .... PW91-LDA
 Gradients option       PostSCFGGA      .... off
   Density functional embedding theory  .... OFF
   NL short-range parameter             ....  6.400000
 RI-approximation to the Coulomb term is turned on
   Number of auxiliary basis functions  .... 578


General Settings:
 Integral files         IntName         .... /scratch/kacsizi/projects/swoose/structure_preparation/swoose/test/preparation_data/glutamine/reference_data/0/37ff300e-d194-4346-afe4-a74fb7c845c4/orca_calc
 Hartree-Fock type      HFTyp           .... RHF
 Total Charge           Charge          ....   -1
 Multiplicity           Mult            ....    1
 Number of Electrons    NEL             ....   78
 Basis Dimension        Dim             ....  180
 Nuclear Repulsion      ENuc            ....    553.1793064206 Eh

Convergence Acceleration:
 DIIS                   CNVDIIS         .... on
   Start iteration      DIISMaxIt       ....    12
   Startup error        DIISStart       ....  0.200000
   # of expansion vecs  DIISMaxEq       ....     5
   Bias factor          DIISBfac        ....   1.050
   Max. coefficient     DIISMaxC        ....  10.000
 Newton-Raphson         CNVNR           .... off
 SOSCF                  CNVSOSCF        .... on
   Start iteration      SOSCFMaxIt      ....   150
   Startup grad/error   SOSCFStart      ....  0.003300
 Level Shifting         CNVShift        .... on
   Level shift para.    LevelShift      ....    0.2500
   Turn off err/grad.   ShiftErr        ....    0.0010
 Zerner damping         CNVZerner       .... off
 Static damping         CNVDamp         .... on
   Fraction old density DampFac         ....    0.7000
   Max. Damping (<1)    DampMax         ....    0.9800
   Min. Damping (>=0)   DampMin         ....    0.0000
   Turn off err/grad.   DampErr         ....    0.1000
 Fernandez-Rico         CNVRico         .... off

SCF Procedure:
 Maximum # iterations   MaxIter         ....   100
 SCF integral mode      SCFMode         .... Direct
   Integral package                     .... LIBINT
 Reset frequency        DirectResetFreq ....    20
 Integral Threshold     Thresh          ....  1.000e-10 Eh
 Primitive CutOff       TCut            ....  1.000e-11 Eh

Convergence Tolerance:
 Convergence Check Mode ConvCheckMode   .... Total+1el-Energy
 Convergence forced     ConvForced      .... 0
 Energy Change          TolE            ....  1.000e-08 Eh
 1-El. energy change                    ....  1.000e-05 Eh
 Orbital Gradient       TolG            ....  5.000e-05
 Orbital Rotation angle TolX            ....  5.000e-05
 DIIS Error             TolErr          ....  1.000e-06


Diagonalization of the overlap matrix:
Smallest eigenvalue                        ... 1.418e-03
Time for diagonalization                   ...    0.168 sec
Threshold for overlap eigenvalues          ... 1.000e-08
Number of eigenvalues below threshold      ... 0
Time for construction of square roots      ...    0.003 sec
Total time needed                          ...    0.171 sec

-------------------
DFT GRID GENERATION
-------------------

General Integration Accuracy     IntAcc      ...  4.340
Radial Grid Type                 RadialGrid  ... Gauss-Chebyshev
Angular Grid (max. acc.)         AngularGrid ... Lebedev-110
Angular grid pruning method      GridPruning ... 3 (G Style)
Weight generation scheme         WeightScheme... Becke
Basis function cutoff            BFCut       ...    1.0000e-10
Integration weight cutoff        WCut        ...    1.0000e-14
Grids for H and He will be reduced by one unit

# of grid points (after initial pruning)     ...  23198 (   0.0 sec)
# of grid points (after weights+screening)   ...  21345 (   0.0 sec)
nearest neighbour list constructed           ...    0.0 sec
Grid point re-assignment to atoms done       ...    0.0 sec
Grid point division into batches done        ...    0.0 sec
Reduced shell lists constructed in    0.1 sec

Total number of grid points                  ...    21345
Total number of batches                      ...      340
Average number of points per batch           ...       62
Average number of grid points per atom       ...     1186
Average number of shells per batch           ...    64.06 (76.26%)
Average number of basis functions per batch  ...   136.15 (75.64%)
Average number of large shells per batch     ...    50.22 (78.40%)
Average number of large basis fcns per batch ...   103.15 (75.76%)
Maximum spatial batch extension              ...  16.14, 13.85, 12.93 au
Average spatial batch extension              ...   0.58,  0.55,  0.57 au

Time for grid setup =    0.112 sec

------------------------------
INITIAL GUESS: MODEL POTENTIAL
------------------------------
Loading Hartree-Fock densities                     ... done
Calculating cut-offs                               ... done
Setting up the integral package                    ... done
Initializing the effective Hamiltonian             ... done
Starting the Coulomb interaction                   ... done (   0.0 sec)
Reading the grid                                   ... done
Mapping shells                                     ... done
Starting the XC term evaluation                    ... done (   0.1 sec)
  promolecular density results
     # of electrons  =     76.994355478
     EX              =    -67.012771617
     EC              =     -2.590434362
     EX+EC           =    -69.603205979
Transforming the Hamiltonian                       ... done (   0.0 sec)
Diagonalizing the Hamiltonian                      ... done (   0.0 sec)
Back transforming the eigenvectors                 ... done (   0.0 sec)
Now organizing SCF variables                       ... done
                      ------------------
                      INITIAL GUESS DONE (   0.3 sec)
                      ------------------
--------------
SCF ITERATIONS
--------------
ITER       Energy         Delta-E        Max-DP      RMS-DP      [F,P]     Damp
               ***  Starting incremental Fock matrix formation  ***
  0   -549.6535963866   0.000000000000 0.13916821  0.00387924  0.2619225 0.7000
  1   -549.8615731555  -0.207976768875 0.10333062  0.00248956  0.0989028 0.7000
                               ***Turning on DIIS***
  2   -549.9209245458  -0.059351390275 0.11151117  0.00339917  0.0241404 0.0000
  3   -550.0386789235  -0.117754377734 0.08066721  0.00170041  0.0611281 0.0000
  4   -550.0567496370  -0.018070713520 0.01965130  0.00056918  0.0223154 0.0000
                      *** Initiating the SOSCF procedure ***
                           *** Shutting down DIIS ***
                      *** Re-Reading the Fockian *** 
                      *** Removing any level shift *** 
ITER      Energy       Delta-E        Grad      Rot      Max-DP    RMS-DP
  5   -550.06001461  -0.0032649693  0.000879  0.000879  0.006331  0.000195
               *** Restarting incremental Fock matrix formation ***
  6   -550.06014459  -0.0001299793  0.001454  0.006416  0.006662  0.000186
  7   -550.05997569   0.0001688987  0.004603  0.004879  0.005119  0.000124
  8   -550.06017347  -0.0001977791  0.000202  0.000754  0.001105  0.000039
  9   -550.06016879   0.0000046734  0.000467  0.000640  0.000790  0.000026
 10   -550.06017473  -0.0000059410  0.000125  0.000360  0.000544  0.000020
 11   -550.06017312   0.0000016087  0.000230  0.000253  0.000432  0.000014
 12   -550.06017513  -0.0000020054  0.000020  0.000060  0.000163  0.000004
 13   -550.06017508   0.0000000518  0.000042  0.000041  0.000098  0.000002
                  ***Gradient check signals convergence***
              ***Rediagonalizing the Fockian in SOSCF/NRSCF***

               *****************************************************
               *                     SUCCESS                       *
               *           SCF CONVERGED AFTER  14 CYCLES          *
               *****************************************************

Setting up the final grid:

General Integration Accuracy     IntAcc      ...  4.670
Radial Grid Type                 RadialGrid  ... Gauss-Chebyshev
Angular Grid (max. acc.)         AngularGrid ... Lebedev-302
Angular grid pruning method      GridPruning ... 3 (G Style)
Weight generation scheme         WeightScheme... Becke
Basis function cutoff            BFCut       ...    1.0000e-10
Integration weight cutoff        WCut        ...    1.0000e-14
Grids for H and He will be reduced by one unit

# of grid points (after initial pruning)     ...  89272 (   0.0 sec)
# of grid points (after weights+screening)   ...  80691 (   0.1 sec)
nearest neighbour list constructed           ...    0.0 sec
Grid point re-assignment to atoms done       ...    0.0 sec
Grid point division into batches done        ...    0.3 sec
Reduced shell lists constructed in    0.4 sec

Total number of grid points                  ...    80691
Total number of batches                      ...     1268
Average number of points per batch           ...       63
Average number of grid points per atom       ...     4483
Average number of shells per batch           ...    60.93 (72.54%)
Average number of basis functions per batch  ...   128.56 (71.42%)
Average number of large shells per batch     ...    47.41 (77.80%)
Average number of large basis fcns per batch ...    96.25 (74.87%)
Maximum spatial batch extension              ...  15.31, 18.04, 11.94 au
Average spatial batch extension              ...   0.37,  0.39,  0.36 au

Final grid set up in    0.5 sec
Final integration                            ... done (   0.2 sec)
Change in XC energy                          ...     0.000234724
Integrated number of electrons               ...    77.999877610
Previous integrated no of electrons          ...    78.001239619

----------------
TOTAL SCF ENERGY
----------------

Total Energy       :         -550.05994042 Eh          -14967.89193 eV

Components:
Nuclear Repulsion  :          553.17930642 Eh           15052.77420 eV
Electronic Energy  :        -1103.23924684 Eh          -30020.66613 eV
One Electron Energy:        -1864.12301519 Eh          -50725.36607 eV
Two Electron Energy:          760.88376836 Eh           20704.69994 eV

Virial components:
Potential Energy   :        -1095.41774145 Eh          -29807.83215 eV
Kinetic Energy     :          545.35780104 Eh           14839.94021 eV
Virial Ratio       :            2.00862212


DFT components:
N(Alpha)           :       38.999938805182 electrons
N(Beta)            :       38.999938805182 electrons
N(Total)           :       77.999877610364 electrons
E(X)               :      -68.314089325197 Eh       
E(C)               :       -2.649468661617 Eh       
E(XC)              :      -70.963557986814 Eh       
DFET-embed. en.    :        0.000000000000 Eh       

---------------
SCF CONVERGENCE
---------------

  Last Energy change         ...   -6.1541e-08  Tolerance :   1.0000e-08
  Last MAX-Density change    ...    2.1928e-05  Tolerance :   1.0000e-05
  Last RMS-Density change    ...    5.7152e-07  Tolerance :   1.0000e-06
  Last Orbital Gradient      ...    2.4101e-06  Tolerance :   5.0000e-05
  Last Orbital Rotation      ...    5.4880e-06  Tolerance :   5.0000e-05

             **** THE GBW FILE WAS UPDATED (/scratch/kacsizi/projects/swoose/structure_preparation/swoose/test/preparation_data/glutamine/reference_data/0/37ff300e-d194-4346-afe4-a74fb7c845c4/orca_calc.gbw) ****
             **** DENSITY FILE WAS UPDATED (/scratch/kacsizi/projects/swoose/structure_preparation/swoose/test/preparation_data/glutamine/reference_data/0/37ff300e-d194-4346-afe4-a74fb7c845c4/orca_calc.scfp) ****
             **** ENERGY FILE WAS UPDATED (/scratch/kacsizi/projects/swoose/structure_preparation/swoose/test/preparation_data/glutamine/reference_data/0/37ff300e-d194-4346-afe4-a74fb7c845c4/orca_calc.en.tmp) ****
             **** THE GBW FILE WAS UPDATED (/scratch/kacsizi/projects/swoose/structure_preparation/swoose/test/preparation_data/glutamine/reference_data/0/37ff300e-d194-4346-afe4-a74fb7c845c4/orca_calc.gbw) ****
             **** DENSITY FILE WAS UPDATED (/scratch/kacsizi/projects/swoose/structure_preparation/swoose/test/preparation_data/glutamine/reference_data/0/37ff300e-d194-4346-afe4-a74fb7c845c4/orca_calc.scfp) ****
----------------
ORBITAL ENERGIES
----------------

  NO   OCC          E(Eh)            E(eV) 
   0   2.0000     -18.610293      -506.4118 
   1   2.0000     -18.575883      -505.4755 
   2   2.0000     -18.543679      -504.5992 
   3   2.0000     -18.532985      -504.3081 
   4   2.0000     -13.823676      -376.1613 
   5   2.0000      -9.850954      -268.0581 
   6   2.0000      -9.804908      -266.8051 
   7   2.0000      -9.773050      -265.9382 
   8   2.0000      -9.771573      -265.8980 
   9   2.0000      -9.762656      -265.6554 
  10   2.0000      -0.815043       -22.1784 
  11   2.0000      -0.756655       -20.5896 
  12   2.0000      -0.736004       -20.0277 
  13   2.0000      -0.674260       -18.3475 
  14   2.0000      -0.641276       -17.4500 
  15   2.0000      -0.557770       -15.1777 
  16   2.0000      -0.466200       -12.6859 
  17   2.0000      -0.401395       -10.9225 
  18   2.0000      -0.362292        -9.8585 
  19   2.0000      -0.321454        -8.7472 
  20   2.0000      -0.293651        -7.9907 
  21   2.0000      -0.284260        -7.7351 
  22   2.0000      -0.268431        -7.3044 
  23   2.0000      -0.256767        -6.9870 
  24   2.0000      -0.227284        -6.1847 
  25   2.0000      -0.225072        -6.1245 
  26   2.0000      -0.205370        -5.5884 
  27   2.0000      -0.191476        -5.2103 
  28   2.0000      -0.188554        -5.1308 
  29   2.0000      -0.169784        -4.6201 
  30   2.0000      -0.167955        -4.5703 
  31   2.0000      -0.155778        -4.2389 
  32   2.0000      -0.133773        -3.6402 
  33   2.0000      -0.098656        -2.6846 
  34   2.0000      -0.060402        -1.6436 
  35   2.0000      -0.047189        -1.2841 
  36   2.0000      -0.041468        -1.1284 
  37   2.0000      -0.020767        -0.5651 
  38   2.0000      -0.018983        -0.5165 
  39   0.0000       0.128095         3.4856 
  40   0.0000       0.166049         4.5184 
  41   0.0000       0.173522         4.7218 
  42   0.0000       0.194388         5.2896 
  43   0.0000       0.222424         6.0525 
  44   0.0000       0.225908         6.1473 
  45   0.0000       0.232717         6.3326 
  46   0.0000       0.252318         6.8659 
  47   0.0000       0.266875         7.2620 
  48   0.0000       0.294692         8.0190 
  49   0.0000       0.308135         8.3848 
  50   0.0000       0.325583         8.8596 
  51   0.0000       0.341863         9.3026 
  52   0.0000       0.388685        10.5767 
  53   0.0000       0.398338        10.8393 
  54   0.0000       0.415977        11.3193 
  55   0.0000       0.452558        12.3147 
  56   0.0000       0.475634        12.9427 
  57   0.0000       0.523166        14.2361 
  58   0.0000       0.547577        14.9003 
  59   0.0000       0.571237        15.5442 
  60   0.0000       0.583225        15.8704 
  61   0.0000       0.596609        16.2346 
  62   0.0000       0.612246        16.6601 
  63   0.0000       0.629841        17.1388 
  64   0.0000       0.643916        17.5219 
  65   0.0000       0.650543        17.7022 
  66   0.0000       0.663444        18.0532 
  67   0.0000       0.673002        18.3133 
  68   0.0000       0.704324        19.1656 
  69   0.0000       0.717980        19.5372 
  70   0.0000       0.730531        19.8788 
  71   0.0000       0.737543        20.0696 
  72   0.0000       0.743092        20.2206 
  73   0.0000       0.751236        20.4422 
  74   0.0000       0.762448        20.7473 
  75   0.0000       0.768685        20.9170 
  76   0.0000       0.783342        21.3158 
  77   0.0000       0.795590        21.6491 
  78   0.0000       0.800968        21.7954 
  79   0.0000       0.809392        22.0247 
  80   0.0000       0.851750        23.1773 
  81   0.0000       0.881703        23.9924 
  82   0.0000       0.916805        24.9475 
  83   0.0000       0.942022        25.6337 
  84   0.0000       0.970128        26.3985 
  85   0.0000       0.979619        26.6568 
  86   0.0000       1.001888        27.2627 
  87   0.0000       1.018652        27.7189 
  88   0.0000       1.057647        28.7800 
  89   0.0000       1.063573        28.9413 
  90   0.0000       1.122025        30.5319 
  91   0.0000       1.145050        31.1584 
  92   0.0000       1.175886        31.9975 
  93   0.0000       1.189884        32.3784 
  94   0.0000       1.216615        33.1058 
  95   0.0000       1.236706        33.6525 
  96   0.0000       1.253081        34.0981 
  97   0.0000       1.269678        34.5497 
  98   0.0000       1.282738        34.9051 
  99   0.0000       1.346298        36.6346 
 100   0.0000       1.374875        37.4123 
 101   0.0000       1.409148        38.3449 
 102   0.0000       1.414719        38.4965 
 103   0.0000       1.441733        39.2315 
 104   0.0000       1.484275        40.3892 
 105   0.0000       1.497382        40.7458 
 106   0.0000       1.527087        41.5542 
 107   0.0000       1.545911        42.0664 
 108   0.0000       1.582211        43.0542 
 109   0.0000       1.614722        43.9388 
 110   0.0000       1.662328        45.2342 
 111   0.0000       1.694477        46.1091 
 112   0.0000       1.703744        46.3612 
 113   0.0000       1.726883        46.9909 
 114   0.0000       1.764911        48.0257 
 115   0.0000       1.776145        48.3314 
 116   0.0000       1.784646        48.5627 
 117   0.0000       1.799056        48.9548 
 118   0.0000       1.816066        49.4177 
 119   0.0000       1.824119        49.6368 
 120   0.0000       1.858727        50.5785 
 121   0.0000       1.872785        50.9611 
 122   0.0000       1.888081        51.3773 
 123   0.0000       1.904812        51.8326 
 124   0.0000       1.925345        52.3913 
 125   0.0000       1.966469        53.5104 
 126   0.0000       1.986032        54.0427 
 127   0.0000       1.995957        54.3128 
 128   0.0000       2.012738        54.7694 
 129   0.0000       2.023299        55.0568 
 130   0.0000       2.044713        55.6395 
 131   0.0000       2.071661        56.3728 
 132   0.0000       2.086039        56.7640 
 133   0.0000       2.109611        57.4054 
 134   0.0000       2.134629        58.0862 
 135   0.0000       2.199704        59.8570 
 136   0.0000       2.211919        60.1894 
 137   0.0000       2.243585        61.0511 
 138   0.0000       2.265287        61.6416 
 139   0.0000       2.285088        62.1804 
 140   0.0000       2.354388        64.0662 
 141   0.0000       2.363974        64.3270 
 142   0.0000       2.385393        64.9098 
 143   0.0000       2.409517        65.5663 
 144   0.0000       2.440701        66.4148 
 145   0.0000       2.509856        68.2966 
 146   0.0000       2.525178        68.7136 
 147   0.0000       2.610843        71.0446 
 148   0.0000       2.618718        71.2589 
 149   0.0000       2.692103        73.2558 
 150   0.0000       2.718035        73.9615 
 151   0.0000       2.724402        74.1347 
 152   0.0000       2.751549        74.8734 
 153   0.0000       2.769780        75.3696 
 154   0.0000       2.779532        75.6349 
 155   0.0000       2.799279        76.1722 
 156   0.0000       2.817737        76.6745 
 157   0.0000       2.875733        78.2527 
 158   0.0000       2.894753        78.7702 
 159   0.0000       2.942152        80.0600 
 160   0.0000       2.954312        80.3909 
 161   0.0000       3.003665        81.7339 
 162   0.0000       3.026458        82.3541 
 163   0.0000       3.051109        83.0249 
 164   0.0000       3.073284        83.6283 
 165   0.0000       3.079729        83.8037 
 166   0.0000       3.132449        85.2383 
 167   0.0000       3.140241        85.4503 
 168   0.0000       3.235847        88.0519 
 169   0.0000       3.248682        88.4011 
 170   0.0000       3.313630        90.1685 
 171   0.0000       3.330594        90.6301 
 172   0.0000       3.399536        92.5061 
 173   0.0000       3.416821        92.9764 
 174   0.0000       3.441751        93.6548 
 175   0.0000       3.508474        95.4704 
 176   0.0000       3.687559       100.3436 
 177   0.0000       3.695613       100.5627 
 178   0.0000       3.763483       102.4096 
 179   0.0000       3.885038       105.7173 

                    ********************************
                    * MULLIKEN POPULATION ANALYSIS *
                    ********************************

-----------------------
MULLIKEN ATOMIC CHARGES
-----------------------
   0 N :   -0.206320
   1 C :   -0.057660
   2 C :    0.076537
   3 O :   -0.382814
   4 C :   -0.010853
   5 C :   -0.021617
   6 C :    0.045955
   7 O :   -0.258806
   8 O :   -0.210138
   9 O :   -0.313302
  10 H :   -0.016575
  11 H :   -0.001427
  12 H :    0.003593
  13 H :   -0.012252
  14 H :    0.038505
  15 H :    0.078563
  16 H :    0.061336
  17 H :    0.187275
Sum of atomic charges:   -1.0000000

--------------------------------
MULLIKEN REDUCED ORBITAL CHARGES
--------------------------------
  0 N s       :     3.289666  s :     3.289666
      pz      :     1.015491  p :     3.903826
      px      :     1.020345
      py      :     1.867990
      dz2     :     0.004621  d :     0.012828
      dxz     :     0.003454
      dyz     :     0.001491
      dx2y2   :     0.002558
      dxy     :     0.000704
  1 C s       :     3.068919  s :     3.068919
      pz      :     0.946375  p :     2.934172
      px      :     0.985099
      py      :     1.002698
      dz2     :     0.011424  d :     0.054568
      dxz     :     0.013102
      dyz     :     0.012199
      dx2y2   :     0.009093
      dxy     :     0.008751
  2 C s       :     3.059508  s :     3.059508
      pz      :     0.927221  p :     2.732131
      px      :     0.906406
      py      :     0.898505
      dz2     :     0.029242  d :     0.131824
      dxz     :     0.036466
      dyz     :     0.027306
      dx2y2   :     0.021891
      dxy     :     0.016920
  3 O s       :     3.774052  s :     3.774052
      pz      :     1.433406  p :     4.596267
      px      :     1.590439
      py      :     1.572422
      dz2     :     0.004594  d :     0.012495
      dxz     :     0.003497
      dyz     :     0.003340
      dx2y2   :     0.000509
      dxy     :     0.000555
  4 C s       :     3.048161  s :     3.048161
      pz      :     0.999829  p :     2.931127
      px      :     0.950431
      py      :     0.980867
      dz2     :     0.005936  d :     0.031566
      dxz     :     0.008022
      dyz     :     0.004351
      dx2y2   :     0.007109
      dxy     :     0.006147
  5 C s       :     3.032488  s :     3.032488
      pz      :     0.992786  p :     2.960743
      px      :     0.947622
      py      :     1.020335
      dz2     :     0.005061  d :     0.028386
      dxz     :     0.006547
      dyz     :     0.006020
      dx2y2   :     0.004994
      dxy     :     0.005764
  6 C s       :     3.098225  s :     3.098225
      pz      :     0.856554  p :     2.728005
      px      :     0.903988
      py      :     0.967463
      dz2     :     0.016988  d :     0.127815
      dxz     :     0.030765
      dyz     :     0.013562
      dx2y2   :     0.033000
      dxy     :     0.033501
  7 O s       :     3.730632  s :     3.730632
      pz      :     1.506289  p :     4.512198
      px      :     1.383289
      py      :     1.622620
      dz2     :     0.001934  d :     0.015976
      dxz     :     0.003661
      dyz     :     0.001288
      dx2y2   :     0.004525
      dxy     :     0.004568
  8 O s       :     3.695540  s :     3.695540
      pz      :     1.569874  p :     4.502161
      px      :     1.259818
      py      :     1.672469
      dz2     :     0.002614  d :     0.012437
      dxz     :     0.002844
      dyz     :     0.002565
      dx2y2   :     0.001291
      dxy     :     0.003122
  9 O s       :     3.735916  s :     3.735916
      pz      :     1.738926  p :     4.562549
      px      :     1.400318
      py      :     1.423304
      dz2     :     0.001838  d :     0.014838
      dxz     :     0.002312
      dyz     :     0.001468
      dx2y2   :     0.004396
      dxy     :     0.004824
 10 H s       :     0.997265  s :     0.997265
      pz      :     0.003839  p :     0.019309
      px      :     0.003965
      py      :     0.011506
 11 H s       :     0.980008  s :     0.980008
      pz      :     0.008736  p :     0.021418
      px      :     0.006550
      py      :     0.006133
 12 H s       :     0.974741  s :     0.974741
      pz      :     0.004539  p :     0.021666
      px      :     0.005450
      py      :     0.011678
 13 H s       :     0.990960  s :     0.990960
      pz      :     0.004820  p :     0.021292
      px      :     0.010690
      py      :     0.005782
 14 H s       :     0.937475  s :     0.937475
      pz      :     0.009817  p :     0.024020
      px      :     0.008552
      py      :     0.005651
 15 H s       :     0.876169  s :     0.876169
      pz      :     0.007798  p :     0.045269
      px      :     0.022375
      py      :     0.015096
 16 H s       :     0.892718  s :     0.892718
      pz      :     0.018219  p :     0.045946
      px      :     0.010678
      py      :     0.017049
 17 H s       :     0.735674  s :     0.735674
      pz      :     0.012649  p :     0.077051
      px      :     0.044292
      py      :     0.020109


                     *******************************
                     * LOEWDIN POPULATION ANALYSIS *
                     *******************************

----------------------
LOEWDIN ATOMIC CHARGES
----------------------
   0 N :   -0.114247
   1 C :   -0.056447
   2 C :   -0.041883
   3 O :   -0.292436
   4 C :   -0.036768
   5 C :   -0.091447
   6 C :    0.027280
   7 O :   -0.231507
   8 O :   -0.072990
   9 O :   -0.285488
  10 H :   -0.007520
  11 H :    0.011857
  12 H :    0.020576
  13 H :    0.020506
  14 H :    0.034197
  15 H :    0.040969
  16 H :    0.034047
  17 H :    0.041300

-------------------------------
LOEWDIN REDUCED ORBITAL CHARGES
-------------------------------
  0 N s       :     3.034971  s :     3.034971
      pz      :     1.119963  p :     4.041941
      px      :     1.133184
      py      :     1.788793
      dz2     :     0.014424  d :     0.037335
      dxz     :     0.012810
      dyz     :     0.002738
      dx2y2   :     0.006031
      dxy     :     0.001331
  1 C s       :     2.870148  s :     2.870148
      pz      :     0.989495  p :     3.053654
      px      :     1.014292
      py      :     1.049867
      dz2     :     0.027031  d :     0.132646
      dxz     :     0.032874
      dyz     :     0.029039
      dx2y2   :     0.021603
      dxy     :     0.022099
  2 C s       :     2.871528  s :     2.871528
      pz      :     0.987810  p :     2.863065
      px      :     0.957875
      py      :     0.917380
      dz2     :     0.067253  d :     0.307291
      dxz     :     0.091261
      dyz     :     0.064499
      dx2y2   :     0.043110
      dxy     :     0.041167
  3 O s       :     3.569946  s :     3.569946
      pz      :     1.526179  p :     4.698895
      px      :     1.592973
      py      :     1.579743
      dz2     :     0.009760  d :     0.023595
      dxz     :     0.006145
      dyz     :     0.005296
      dx2y2   :     0.000874
      dxy     :     0.001520
  4 C s       :     2.863539  s :     2.863539
      pz      :     1.026827  p :     3.090041
      px      :     1.012669
      py      :     1.050545
      dz2     :     0.014948  d :     0.083188
      dxz     :     0.022842
      dyz     :     0.010869
      dx2y2   :     0.017971
      dxy     :     0.016558
  5 C s       :     2.871054  s :     2.871054
      pz      :     1.047293  p :     3.142893
      px      :     1.041746
      py      :     1.053854
      dz2     :     0.012435  d :     0.077499
      dxz     :     0.019537
      dyz     :     0.015306
      dx2y2   :     0.014246
      dxy     :     0.015975
  6 C s       :     2.871216  s :     2.871216
      pz      :     0.872449  p :     2.813454
      px      :     0.955004
      py      :     0.986000
      dz2     :     0.034865  d :     0.288050
      dxz     :     0.070378
      dyz     :     0.029111
      dx2y2   :     0.076094
      dxy     :     0.077601
  7 O s       :     3.559357  s :     3.559357
      pz      :     1.511757  p :     4.643870
      px      :     1.480072
      py      :     1.652041
      dz2     :     0.003869  d :     0.028279
      dxz     :     0.005618
      dyz     :     0.001770
      dx2y2   :     0.007667
      dxy     :     0.009355
  8 O s       :     3.459176  s :     3.459176
      pz      :     1.587073  p :     4.588877
      px      :     1.314033
      py      :     1.687772
      dz2     :     0.003841  d :     0.024937
      dxz     :     0.006677
      dyz     :     0.004185
      dx2y2   :     0.003437
      dxy     :     0.006796
  9 O s       :     3.568700  s :     3.568700
      pz      :     1.750624  p :     4.690000
      px      :     1.471095
      py      :     1.468281
      dz2     :     0.003835  d :     0.026788
      dxz     :     0.003879
      dyz     :     0.002385
      dx2y2   :     0.006021
      dxy     :     0.010667
 10 H s       :     0.940158  s :     0.940158
      pz      :     0.014192  p :     0.067361
      px      :     0.014513
      py      :     0.038657
 11 H s       :     0.922715  s :     0.922715
      pz      :     0.027504  p :     0.065428
      px      :     0.019917
      py      :     0.018008
 12 H s       :     0.912053  s :     0.912053
      pz      :     0.013506  p :     0.067371
      px      :     0.015414
      py      :     0.038450
 13 H s       :     0.912549  s :     0.912549
      pz      :     0.015722  p :     0.066945
      px      :     0.032374
      py      :     0.018849
 14 H s       :     0.891979  s :     0.891979
      pz      :     0.030627  p :     0.073824
      px      :     0.025115
      py      :     0.018081
 15 H s       :     0.829823  s :     0.829823
      pz      :     0.016625  p :     0.129208
      px      :     0.065069
      py      :     0.047514
 16 H s       :     0.837512  s :     0.837512
      pz      :     0.052756  p :     0.128440
      px      :     0.025400
      py      :     0.050285
 17 H s       :     0.729844  s :     0.729844
      pz      :     0.032940  p :     0.228856
      px      :     0.133737
      py      :     0.062180


                      *****************************
                      * MAYER POPULATION ANALYSIS *
                      *****************************

  NA   - Mulliken gross atomic population
  ZA   - Total nuclear charge
  QA   - Mulliken gross atomic charge
  VA   - Mayer's total valence
  BVA  - Mayer's bonded valence
  FA   - Mayer's free valence

  ATOM       NA         ZA         QA         VA         BVA        FA
  0 N      7.2063     7.0000    -0.2063     3.0610     3.0610    -0.0000
  1 C      6.0577     6.0000    -0.0577     3.9522     3.9522    -0.0000
  2 C      5.9235     6.0000     0.0765     4.4159     4.4159     0.0000
  3 O      8.3828     8.0000    -0.3828     2.1229     2.1229     0.0000
  4 C      6.0109     6.0000    -0.0109     4.0680     4.0680     0.0000
  5 C      6.0216     6.0000    -0.0216     3.8827     3.8827    -0.0000
  6 C      5.9540     6.0000     0.0460     4.4542     4.4542    -0.0000
  7 O      8.2588     8.0000    -0.2588     2.2351     2.2351    -0.0000
  8 O      8.2101     8.0000    -0.2101     2.2592     2.2592    -0.0000
  9 O      8.3133     8.0000    -0.3133     2.2018     2.2018    -0.0000
 10 H      1.0166     1.0000    -0.0166     0.9962     0.9962    -0.0000
 11 H      1.0014     1.0000    -0.0014     0.9726     0.9726    -0.0000
 12 H      0.9964     1.0000     0.0036     1.0010     1.0010    -0.0000
 13 H      1.0123     1.0000    -0.0123     1.0007     1.0007    -0.0000
 14 H      0.9615     1.0000     0.0385     1.0313     1.0313     0.0000
 15 H      0.9214     1.0000     0.0786     1.0474     1.0474    -0.0000
 16 H      0.9387     1.0000     0.0613     1.0192     1.0192     0.0000
 17 H      0.8127     1.0000     0.1873     1.1251     1.1251    -0.0000

  Mayer bond orders larger than 0.100000
B(  0-N ,  1-C ) :   1.0856 B(  0-N , 15-H ) :   0.9497 B(  0-N , 16-H ) :   0.9623 
B(  1-C ,  2-C ) :   0.8494 B(  1-C ,  4-C ) :   1.0526 B(  1-C , 10-H ) :   0.8895 
B(  2-C ,  3-O ) :   1.5538 B(  2-C ,  9-O ) :   1.9627 B(  3-O ,  9-O ) :   0.1357 
B(  3-O , 17-H ) :   0.2851 B(  4-C ,  5-C ) :   1.0885 B(  4-C , 11-H ) :   0.9348 
B(  4-C , 12-H ) :   0.9218 B(  5-C ,  6-C ) :   0.9711 B(  5-C , 13-H ) :   0.9095 
B(  5-C , 14-H ) :   0.8940 B(  6-C ,  7-O ) :   2.0701 B(  6-C ,  8-O ) :   1.3119 
B(  8-O , 17-H ) :   0.7694 


------------------
HIRSHFELD ANALYSIS
------------------

Total integrated alpha density =     39.000619811
Total integrated beta density  =     39.000619811

  ATOM     CHARGE      SPIN    
   0 N   -0.244436    0.000000
   1 C    0.004110    0.000000
   2 C    0.131415    0.000000
   3 O   -0.335985    0.000000
   4 C   -0.044556    0.000000
   5 C   -0.062383    0.000000
   6 C    0.179829    0.000000
   7 O   -0.345811    0.000000
   8 O   -0.222841    0.000000
   9 O   -0.383318    0.000000
  10 H   -0.009024    0.000000
  11 H    0.011845    0.000000
  12 H    0.014749    0.000000
  13 H    0.017623    0.000000
  14 H    0.023674    0.000000
  15 H    0.085687    0.000000
  16 H    0.081124    0.000000
  17 H    0.097059    0.000000

  TOTAL  -1.001240    0.000000

-------
TIMINGS
-------

Total SCF time: 0 days 0 hours 0 min 4 sec 

Total time                  ....       4.106 sec
Sum of individual times     ....       3.831 sec  ( 93.3%)

Fock matrix formation       ....       2.927 sec  ( 71.3%)
  Split-RI-J                ....       1.983 sec  ( 67.7% of F)
  XC integration            ....       0.903 sec  ( 30.8% of F)
    Basis function eval.    ....       0.329 sec  ( 36.4% of XC)
    Density eval.           ....       0.179 sec  ( 19.8% of XC)
    XC-Functional eval.     ....       0.057 sec  (  6.3% of XC)
    XC-Potential eval.      ....       0.260 sec  ( 28.8% of XC)
Diagonalization             ....       0.020 sec  (  0.5%)
Density matrix formation    ....       0.005 sec  (  0.1%)
Population analysis         ....       0.054 sec  (  1.3%)
Initial guess               ....       0.214 sec  (  5.2%)
Orbital Transformation      ....       0.000 sec  (  0.0%)
Orbital Orthonormalization  ....       0.000 sec  (  0.0%)
DIIS solution               ....       0.009 sec  (  0.2%)
SOSCF solution              ....       0.025 sec  (  0.6%)
Grid generation             ....       0.578 sec  ( 14.1%)


-------------------------------------------------------------------------------
                          DFT DISPERSION CORRECTION                            
                                                                               
                              DFTD3 V3.1  Rev 1                                
                          USING Becke-Johnson damping                          
-------------------------------------------------------------------------------
The PBE functional is recognized
Active option DFTDOPT                   ...         4   

molecular C6(AA) [au] = 2983.947059 


            DFT-D V3
 parameters
 s6 scaling factor         :     1.0000 
 a1 scaling factor         :     0.4289 
 s8 scaling factor         :     0.7875 
 a2 scaling factor         :     4.4407 
 ad hoc parameters k1-k3   :    16.0000     1.3333    -4.0000 

 Edisp/kcal,au: -11.378494550758  -0.018132783340 
 E6   /kcal   :  -8.123392741 
 E8   /kcal   :  -3.255101809 
 % E8         :  28.607491043 

-------------------------   ----------------
Dispersion correction           -0.018132783
-------------------------   ----------------


-------------------------   --------------------
FINAL SINGLE POINT ENERGY      -550.078073199467
-------------------------   --------------------


                            ***************************************
                            *     ORCA property calculations      *
                            ***************************************

                                    ---------------------
                                    Active property flags
                                    ---------------------
   (+) Dipole Moment


------------------------------------------------------------------------------
                       ORCA ELECTRIC PROPERTIES CALCULATION
------------------------------------------------------------------------------

Dipole Moment Calculation                       ... on
Quadrupole Moment Calculation                   ... off
Polarizability Calculation                      ... off
GBWName                                         ... /scratch/kacsizi/projects/swoose/structure_preparation/swoose/test/preparation_data/glutamine/reference_data/0/37ff300e-d194-4346-afe4-a74fb7c845c4/orca_calc.gbw
Electron density file                           ... /scratch/kacsizi/projects/swoose/structure_preparation/swoose/test/preparation_data/glutamine/reference_data/0/37ff300e-d194-4346-afe4-a74fb7c845c4/orca_calc.scfp
The origin for moment calculation is the CENTER OF MASS  = (-0.995714, -0.963069  2.137339)

-------------
DIPOLE MOMENT
-------------
                                X             Y             Z
Electronic contribution:     -0.06391      -2.06051      -5.36185
Nuclear contribution   :     -0.42230       2.24152       6.81329
                        -----------------------------------------
Total Dipole Moment    :     -0.48620       0.18101       1.45144
                        -----------------------------------------
Magnitude (a.u.)       :      1.54138
Magnitude (Debye)      :      3.91787



--------------------
Rotational spectrum 
--------------------
 
Rotational constants in cm-1:     0.077073     0.029591     0.024687 
Rotational constants in MHz :  2310.589146   887.118666   740.101192 

 Dipole components along the rotational axes: 
x,y,z [a.u.] :     0.005608     1.538094    -0.100406 
x,y,z [Debye]:     0.014254     3.909524    -0.255211 

 


           ************************************************************
           *        Program running with 4 parallel MPI-processes     *
           *              working on a common directory               *
           ************************************************************

-------------------------------------------------------------------------------
                               ORCA SCF HESSIAN
-------------------------------------------------------------------------------

Hessian of the Kohn-Sham DFT energy:
Kohn-Sham wavefunction type                      ... RKS
Hartree-Fock exchange scaling                    ...    0.000
Number of operators                              ...    1
Number of atoms                                  ...   18
Basis set dimensions                             ...  180
Integral neglect threshold                       ... 1.0e-10
Integral primitive cutoff                        ... 1.0e-11

Setting up DFT Hessian calculations              ... 
Electron density on the grid                     ... found on disk
Electron density on the final grid               ... found on disk
Building xc-kernel on the grid                   ... done   (      0.0 sec)
Building xc-kernel on the final grid             ... done   (      0.0 sec)
                                                     done   (      0.1 sec)

Nuclear repulsion Hessian                        ... done   (      0.0 sec)

----------------------------------------------
Forming right-hand sides of CP-SCF equations     ...
----------------------------------------------
One electron integral derivatives                ... done   (      0.2 sec)
Transforming the overlap derivative matrices     ... done   (      0.0 sec)
Making the Q(x) pseudodensities                  ... done   (      0.0 sec)
Adding the E*S(x)*S(y) terms to the Hessian      ... done   (      0.0 sec)
Calculating energy weighted overlap derivatives  ... done   (      0.0 sec)
Two electron integral derivatives (RI)           ... done   (      1.6 sec)
Exchange-correlation integral derivatives        ... done   (     15.2 sec)
tr(F(y)Q(x)) contribution to the Hessian         ... done   (      0.0 sec)
Response fock operator R(S(x)) (RI)              ... done   (      3.2 sec)
XC Response fock operator R(S(x))                ... done   (      4.1 sec)
tr(F(y)S(x)) contribution to the Hessian         ... done   (      0.0 sec)
Transforming and finalizing RHSs                 ... done   (      0.0 sec)

----------------------------------------------
Solving the CP-SCF equations (RI)                ...
----------------------------------------------
     CP-SCF ITERATION   0: 
     CP-SCF ITERATION   1:      0.013089284004
     CP-SCF ITERATION   2:      0.001247422788
     CP-SCF ITERATION   3:      0.000100066944
     CP-SCF ITERATION   4:      0.000015234621
     CP-SCF ITERATION   5:      0.000001581292
     CP-SCF ITERATION   6:      0.000000832177

                                                 ... done   (     38.8 sec)
Forming perturbed density Hessian contributions  ... done   (      0.0 sec)
Making the perturbed densities                   ... done   (      0.0 sec)
2nd integral derivative contribs (RI)            ... done   (      3.1 sec)
Exchange-correlation Hessian                     ... done   (      9.5 sec)
Dispersion correction in the Hessian             ... done   (      0.9 sec)
Dipol derivatives                                ... done   (      0.4 sec)

Total SCF Hessian time: 0 days 0 hours 1 min 17 sec 

Writing the Hessian file to the disk             ... done


Maximum memory used throughout the entire calculation: 160.4 MB

-----------------------
VIBRATIONAL FREQUENCIES
-----------------------

Scaling factor for frequencies =  1.000000000  (already applied!)

   0:         0.00 cm**-1
   1:         0.00 cm**-1
   2:         0.00 cm**-1
   3:         0.00 cm**-1
   4:         0.00 cm**-1
   5:         0.00 cm**-1
   6:      -707.99 cm**-1 ***imaginary mode***
   7:      -126.77 cm**-1 ***imaginary mode***
   8:        60.47 cm**-1
   9:        99.19 cm**-1
  10:       119.87 cm**-1
  11:       191.34 cm**-1
  12:       214.44 cm**-1
  13:       243.60 cm**-1
  14:       331.06 cm**-1
  15:       335.00 cm**-1
  16:       397.56 cm**-1
  17:       467.02 cm**-1
  18:       537.30 cm**-1
  19:       590.16 cm**-1
  20:       635.42 cm**-1
  21:       719.11 cm**-1
  22:       752.80 cm**-1
  23:       795.44 cm**-1
  24:       834.94 cm**-1
  25:       858.11 cm**-1
  26:       938.54 cm**-1
  27:       962.90 cm**-1
  28:       993.19 cm**-1
  29:      1035.38 cm**-1
  30:      1088.85 cm**-1
  31:      1132.42 cm**-1
  32:      1161.56 cm**-1
  33:      1188.97 cm**-1
  34:      1243.32 cm**-1
  35:      1262.45 cm**-1
  36:      1283.58 cm**-1
  37:      1304.58 cm**-1
  38:      1324.47 cm**-1
  39:      1344.15 cm**-1
  40:      1352.82 cm**-1
  41:      1376.36 cm**-1
  42:      1483.56 cm**-1
  43:      1497.06 cm**-1
  44:      1704.49 cm**-1
  45:      1774.60 cm**-1
  46:      2470.53 cm**-1
  47:      2804.13 cm**-1
  48:      2939.02 cm**-1
  49:      2985.01 cm**-1
  50:      3048.93 cm**-1
  51:      3103.63 cm**-1
  52:      3551.47 cm**-1
  53:      3688.46 cm**-1


------------
NORMAL MODES
------------

These modes are the Cartesian displacements weighted by the diagonal matrix
M(i,i)=1/sqrt(m[i]) where m[i] is the mass of the displaced atom
Thus, these vectors are normalized but *not* orthogonal

                  0          1          2          3          4          5    
      0       0.000000   0.000000   0.000000   0.000000   0.000000   0.000000
      1       0.000000   0.000000   0.000000   0.000000   0.000000   0.000000
      2       0.000000   0.000000   0.000000   0.000000   0.000000   0.000000
      3       0.000000   0.000000   0.000000   0.000000   0.000000   0.000000
      4       0.000000   0.000000   0.000000   0.000000   0.000000   0.000000
      5       0.000000   0.000000   0.000000   0.000000   0.000000   0.000000
      6       0.000000   0.000000   0.000000   0.000000   0.000000   0.000000
      7       0.000000   0.000000   0.000000   0.000000   0.000000   0.000000
      8       0.000000   0.000000   0.000000   0.000000   0.000000   0.000000
      9       0.000000   0.000000   0.000000   0.000000   0.000000   0.000000
     10       0.000000   0.000000   0.000000   0.000000   0.000000   0.000000
     11       0.000000   0.000000   0.000000   0.000000   0.000000   0.000000
     12       0.000000   0.000000   0.000000   0.000000   0.000000   0.000000
     13       0.000000   0.000000   0.000000   0.000000   0.000000   0.000000
     14       0.000000   0.000000   0.000000   0.000000   0.000000   0.000000
     15       0.000000   0.000000   0.000000   0.000000   0.000000   0.000000
     16       0.000000   0.000000   0.000000   0.000000   0.000000   0.000000
     17       0.000000   0.000000   0.000000   0.000000   0.000000   0.000000
     18       0.000000   0.000000   0.000000   0.000000   0.000000   0.000000
     19       0.000000   0.000000   0.000000   0.000000   0.000000   0.000000
     20       0.000000   0.000000   0.000000   0.000000   0.000000   0.000000
     21       0.000000   0.000000   0.000000   0.000000   0.000000   0.000000
     22       0.000000   0.000000   0.000000   0.000000   0.000000   0.000000
     23       0.000000   0.000000   0.000000   0.000000   0.000000   0.000000
     24       0.000000   0.000000   0.000000   0.000000   0.000000   0.000000
     25       0.000000   0.000000   0.000000   0.000000   0.000000   0.000000
     26       0.000000   0.000000   0.000000   0.000000   0.000000   0.000000
     27       0.000000   0.000000   0.000000   0.000000   0.000000   0.000000
     28       0.000000   0.000000   0.000000   0.000000   0.000000   0.000000
     29       0.000000   0.000000   0.000000   0.000000   0.000000   0.000000
     30       0.000000   0.000000   0.000000   0.000000   0.000000   0.000000
     31       0.000000   0.000000   0.000000   0.000000   0.000000   0.000000
     32       0.000000   0.000000   0.000000   0.000000   0.000000   0.000000
     33       0.000000   0.000000   0.000000   0.000000   0.000000   0.000000
     34       0.000000   0.000000   0.000000   0.000000   0.000000   0.000000
     35       0.000000   0.000000   0.000000   0.000000   0.000000   0.000000
     36       0.000000   0.000000   0.000000   0.000000   0.000000   0.000000
     37       0.000000   0.000000   0.000000   0.000000   0.000000   0.000000
     38       0.000000   0.000000   0.000000   0.000000   0.000000   0.000000
     39       0.000000   0.000000   0.000000   0.000000   0.000000   0.000000
     40       0.000000   0.000000   0.000000   0.000000   0.000000   0.000000
     41       0.000000   0.000000   0.000000   0.000000   0.000000   0.000000
     42       0.000000   0.000000   0.000000   0.000000   0.000000   0.000000
     43       0.000000   0.000000   0.000000   0.000000   0.000000   0.000000
     44       0.000000   0.000000   0.000000   0.000000   0.000000   0.000000
     45       0.000000   0.000000   0.000000   0.000000   0.000000   0.000000
     46       0.000000   0.000000   0.000000   0.000000   0.000000   0.000000
     47       0.000000   0.000000   0.000000   0.000000   0.000000   0.000000
     48       0.000000   0.000000   0.000000   0.000000   0.000000   0.000000
     49       0.000000   0.000000   0.000000   0.000000   0.000000   0.000000
     50       0.000000   0.000000   0.000000   0.000000   0.000000   0.000000
     51       0.000000   0.000000   0.000000   0.000000   0.000000   0.000000
     52       0.000000   0.000000   0.000000   0.000000   0.000000   0.000000
     53       0.000000   0.000000   0.000000   0.000000   0.000000   0.000000
                  6          7          8          9         10         11    
      0       0.004090   0.055622   0.169219   0.013390  -0.095313  -0.004837
      1      -0.125303   0.050613   0.018761  -0.123081  -0.256407   0.088500
      2       0.010394  -0.043897  -0.006438  -0.048372  -0.066614   0.061909
      3      -0.001406  -0.015566   0.118202  -0.057015  -0.045042   0.057851
      4       0.013206   0.004808  -0.051786  -0.068818  -0.024310  -0.039942
      5      -0.000500   0.010001   0.032049  -0.004846  -0.112621   0.031267
      6      -0.004125   0.003236   0.002504  -0.050332   0.020287  -0.002227
      7       0.001492  -0.015316   0.040612  -0.056033   0.080549   0.027883
      8      -0.000710   0.016778  -0.005150   0.019040  -0.022400   0.027011
      9       0.002823  -0.003992   0.052309   0.147433   0.027102  -0.063777
     10       0.002933   0.046045  -0.101275  -0.253515   0.223211   0.096406
     11      -0.000002   0.009671   0.028054   0.006676  -0.063701   0.028190
     12      -0.001435  -0.028689   0.066892   0.004456   0.030881  -0.030233
     13       0.005248   0.007354  -0.150302   0.060323   0.117022  -0.193567
     14      -0.001757  -0.008584   0.070772  -0.026915  -0.134461  -0.024306
     15      -0.001573  -0.028681   0.080164   0.053852   0.033234   0.168441
     16       0.001320  -0.002901  -0.069963   0.081683   0.041316  -0.012855
     17      -0.000455  -0.012019   0.058641  -0.063716  -0.142650  -0.162778
     18      -0.000259  -0.018769  -0.069754   0.050635   0.003437  -0.004853
     19      -0.000334  -0.004387   0.012181   0.058593  -0.020504   0.018128
     20       0.000717  -0.003360  -0.020671   0.000687   0.075225  -0.052043
     21      -0.000061  -0.015564  -0.251553   0.111821  -0.016306   0.016239
     22       0.000491  -0.012247   0.240037   0.017496   0.040838   0.091495
     23      -0.000280  -0.012735  -0.314988   0.173342   0.096247   0.169884
     24      -0.000467  -0.007857  -0.005242  -0.025562   0.039698  -0.119392
     25      -0.000115  -0.010997  -0.201514   0.080211  -0.212251  -0.098220
     26      -0.000320   0.005169   0.192953  -0.101341   0.222738  -0.128442
     27       0.001356   0.045423  -0.150960  -0.255848   0.010352   0.007442
     28       0.001480  -0.069151   0.257831   0.206884   0.055894   0.018300
     29       0.004555   0.046084  -0.035920   0.051938   0.114194   0.029000
     30      -0.005032  -0.004696   0.201299  -0.129392  -0.137141   0.195577
     31       0.020289  -0.001865  -0.071625  -0.046808   0.026061  -0.073811
     32      -0.004451   0.026624   0.043836  -0.018357  -0.227589   0.038207
     33       0.006272  -0.035936   0.077555  -0.064145  -0.003380  -0.141978
     34       0.001564   0.015464  -0.222758   0.125344   0.239113  -0.377994
     35       0.000025  -0.008526   0.034539  -0.032567  -0.082010  -0.208190
     36      -0.010922  -0.027008   0.026995   0.102725   0.116546  -0.134997
     37       0.011524   0.004705  -0.153556   0.035096   0.113146  -0.208109
     38      -0.007813  -0.009037   0.142985  -0.051949  -0.244276   0.206103
     39      -0.003018  -0.033542   0.125100   0.056924   0.049522   0.230160
     40      -0.000288  -0.006369   0.015366   0.114372   0.114997   0.164414
     41      -0.002411  -0.021290   0.049026  -0.110539  -0.222315  -0.276676
     42      -0.003037  -0.025997   0.146468   0.079763   0.079829   0.382751
     43       0.000946  -0.005852  -0.107836   0.052334  -0.110790  -0.155236
     44      -0.001643  -0.012007   0.080687  -0.059824  -0.199521  -0.089001
     45      -0.011336   0.038431   0.162083   0.000527  -0.091479  -0.002256
     46       0.653491   0.751145   0.235490   0.383763  -0.276766   0.117065
     47      -0.103022  -0.223004  -0.071943  -0.158845  -0.010606   0.105424
     48       0.020713   0.111609   0.211306   0.059341  -0.135066  -0.050048
     49       0.735679  -0.583704  -0.150082  -0.636011  -0.395035   0.142039
     50      -0.059414   0.040655   0.030352   0.020843  -0.073750   0.034355
     51      -0.003599  -0.027457  -0.019977   0.040837  -0.030085  -0.132414
     52      -0.007480  -0.016739  -0.289369  -0.031038  -0.169542  -0.164678
     53       0.003779   0.018156   0.225499  -0.087108   0.135847  -0.081052
                 12         13         14         15         16         17    
      0       0.067663   0.094087  -0.131294  -0.034141  -0.199352  -0.017110
      1      -0.048857  -0.050557  -0.089493   0.161580   0.033122  -0.005742
      2      -0.005610   0.076790   0.151295   0.005176   0.071949   0.059879
      3      -0.091890   0.059533   0.101072   0.086526  -0.036423  -0.014713
      4      -0.044426   0.006561  -0.030913  -0.230860   0.002824  -0.013391
      5       0.093462   0.091098  -0.008905  -0.041359  -0.020523   0.045508
      6      -0.227974  -0.008187   0.084020  -0.010955  -0.024707  -0.016426
      7      -0.069562  -0.012470   0.019593  -0.138106  -0.011682  -0.017788
      8       0.023325   0.069394   0.017605  -0.008245  -0.099932  -0.046544
      9      -0.385006  -0.135763  -0.092833  -0.038648   0.038408   0.035878
     10       0.022586   0.041043  -0.037956   0.072493   0.044566   0.033162
     11       0.040804   0.103753   0.100981  -0.065501  -0.142503  -0.089058
     12      -0.052351   0.154799   0.046861   0.162547   0.064532   0.001156
     13       0.029446   0.206757  -0.059832  -0.070951   0.044375   0.017297
     14       0.084702  -0.047917  -0.107739  -0.163420   0.121890   0.071806
     15       0.138878   0.066262  -0.052032  -0.031953   0.091583   0.147608
     16       0.100870  -0.078317   0.031661   0.020702  -0.085878   0.006586
     17      -0.058753  -0.018487  -0.033020   0.002257   0.186920  -0.037322
     18       0.230329  -0.016710  -0.029640  -0.021076   0.122721  -0.074617
     19       0.058315  -0.082457   0.029249   0.040984  -0.040301  -0.007024
     20      -0.065020  -0.024341  -0.016096   0.012460   0.059001   0.079555
     21       0.194952  -0.044450  -0.000910   0.000306   0.036492  -0.046247
     22       0.108892  -0.037957  -0.024880  -0.009466   0.116847  -0.144481
     23      -0.074819  -0.053013   0.009913   0.005277  -0.012598  -0.067814
     24       0.271452  -0.101626   0.029369   0.039115  -0.014633  -0.017649
     25      -0.043624  -0.044078   0.061592   0.077161  -0.091112   0.125469
     26       0.116559  -0.163943   0.053457   0.072730  -0.097455   0.066293
     27      -0.168783  -0.025234   0.086219  -0.137366  -0.028507  -0.028960
     28      -0.120720   0.032715   0.090458  -0.027640  -0.025280  -0.013571
     29      -0.134953   0.005752  -0.203614   0.131672  -0.042083  -0.043860
     30      -0.167107  -0.066333   0.191680   0.161509  -0.061508  -0.035040
     31      -0.033583   0.024908  -0.021343  -0.290223   0.001726  -0.015896
     32       0.140292   0.110717  -0.090740   0.147556  -0.007104   0.074013
     33      -0.177082   0.152895   0.058393   0.176222   0.159463  -0.047804
     34      -0.006304   0.553047  -0.105041   0.151597   0.112649   0.058743
     35      -0.019903   0.159902  -0.126719  -0.020563   0.226584   0.065770
     36      -0.022788   0.258149   0.048083   0.412657   0.144488   0.032968
     37       0.002292   0.251906  -0.075132  -0.111612   0.038211   0.013395
     38       0.182830  -0.427643  -0.037607  -0.330634   0.024110   0.044229
     39       0.084823   0.066325  -0.024702   0.017436   0.005800   0.299685
     40       0.075130  -0.069750   0.001049  -0.016452  -0.217618   0.462967
     41      -0.188197  -0.029004   0.107940   0.222226   0.141813  -0.347779
     42       0.242449  -0.003267  -0.140009  -0.184205   0.045311   0.474978
     43       0.117252  -0.143148   0.098450   0.105043  -0.006236  -0.413659
     44       0.029757  -0.105874  -0.056255  -0.057179   0.198651  -0.049850
     45       0.057739   0.093604  -0.123971  -0.028702  -0.193530  -0.016683
     46       0.028576  -0.087647   0.403613   0.179826   0.420802   0.095761
     47      -0.153334   0.054151   0.356195   0.118423   0.257674   0.087402
     48       0.187341   0.124978  -0.355809  -0.152379  -0.415109  -0.051783
     49      -0.114960  -0.068408  -0.483620   0.301853  -0.250382  -0.079094
     50       0.058910   0.094497   0.074554  -0.066620  -0.009949   0.049416
     51       0.277223  -0.106688   0.033342   0.034440  -0.012974  -0.026690
     52       0.242736  -0.104515   0.131644   0.155209  -0.193697   0.119025
     53      -0.066602  -0.049414   0.058810  -0.010554  -0.102488   0.032026
                 18         19         20         21         22         23    
      0       0.146395   0.030849  -0.067730   0.008496  -0.008304   0.034294
      1      -0.056275  -0.018573   0.054709  -0.000275   0.000130  -0.007419
      2       0.262161   0.028790  -0.108668  -0.009202  -0.045246   0.037101
      3       0.026210  -0.054009  -0.162437   0.026912   0.064839   0.045959
      4      -0.044908  -0.031206  -0.262452   0.029754   0.063493  -0.051908
      5       0.210128   0.067358   0.056316  -0.020352  -0.070740  -0.016744
      6       0.015292  -0.008328   0.125697   0.207216   0.201704   0.079821
      7      -0.079283   0.002155  -0.073066  -0.248229  -0.201078   0.072437
      8      -0.092614   0.023483   0.076970  -0.018444  -0.032526  -0.151225
      9       0.119092   0.059794   0.060925  -0.070138  -0.090532  -0.138312
     10       0.109680   0.039896   0.098711   0.049827   0.006250  -0.099202
     11      -0.200317  -0.024270   0.107892  -0.001985  -0.025625  -0.057500
     12      -0.083921  -0.094394  -0.082008  -0.064858  -0.014806  -0.133531
     13       0.024001  -0.035872  -0.007128   0.079305   0.073153  -0.041455
     14       0.022309  -0.079007   0.077074  -0.047334   0.169182   0.024830
     15      -0.156425  -0.024379  -0.024432  -0.009603  -0.035059  -0.112386
     16       0.094852  -0.298415   0.040051   0.039727  -0.046978  -0.048635
     17      -0.066172  -0.069066   0.043191  -0.016607   0.030274  -0.003237
     18      -0.038065   0.040021   0.004514   0.111914  -0.147725   0.060050
     19       0.061706  -0.141867   0.037635  -0.084118   0.005792   0.071449
     20      -0.109430   0.066264  -0.010654   0.219074  -0.290912   0.059243
     21       0.033516  -0.134626   0.039199  -0.000373  -0.080690   0.096060
     22      -0.009037   0.194902  -0.008195   0.022100  -0.004673   0.034795
     23       0.026325   0.111526  -0.009356  -0.068778   0.123723  -0.035411
     24      -0.014950   0.159866  -0.022557  -0.046780   0.139219  -0.039066
     25      -0.086896   0.168566  -0.047250   0.034870  -0.036034   0.030102
     26      -0.000741  -0.017036  -0.017676  -0.030638  -0.003730   0.008725
     27      -0.054042  -0.000503   0.074843  -0.038071  -0.019851   0.078216
     28      -0.008685   0.001832   0.101024   0.072913   0.068929   0.051842
     29      -0.079904  -0.064595  -0.161715   0.021857   0.066468   0.120364
     30      -0.026437  -0.024638  -0.178884  -0.249777  -0.188299   0.235024
     31      -0.068764  -0.039623  -0.285342   0.034531   0.090497  -0.092509
     32       0.362208   0.081963   0.135510   0.148442   0.014057  -0.014866
     33      -0.236978  -0.120005  -0.123451  -0.088694   0.266624  -0.070621
     34       0.102091   0.191196   0.334460  -0.412596  -0.029858   0.347612
     35      -0.030599   0.042016   0.257124  -0.357713   0.286074   0.300261
     36      -0.117282  -0.161313   0.268790  -0.284429  -0.130408   0.038357
     37       0.040050   0.038609  -0.056994   0.042756   0.125105  -0.010085
     38      -0.009221  -0.366116  -0.196260   0.446509   0.062653  -0.394873
     39      -0.219878  -0.061974  -0.029416  -0.121016   0.016551  -0.126888
     40      -0.113347  -0.305465   0.124244  -0.119589   0.190700   0.118611
     41       0.100209  -0.187566  -0.118760  -0.089603  -0.210727  -0.348862
     42      -0.272905  -0.040763   0.159980  -0.141150   0.289585   0.192758
     43       0.314768  -0.367599  -0.028975  -0.064196  -0.038095  -0.268038
     44      -0.019657  -0.120546   0.135691  -0.174043   0.265157   0.087928
     45       0.145289   0.025597  -0.079282   0.009548   0.000838   0.039050
     46      -0.084692  -0.044998  -0.038147  -0.036291   0.059440   0.000969
     47       0.192067  -0.084759  -0.373877   0.012600   0.190608   0.107784
     48       0.227043   0.139497   0.188626   0.002681  -0.210260  -0.000731
     49      -0.072020  -0.013056   0.204979   0.026721  -0.020298  -0.003459
     50       0.307159   0.082163   0.006931  -0.014225  -0.145705   0.021362
     51      -0.037362   0.154432  -0.031944  -0.015393   0.072131  -0.018266
     52      -0.088115   0.387610  -0.147454  -0.132611   0.332068  -0.290877
     53      -0.077181  -0.044107   0.052721   0.032207  -0.065953   0.189743
                 24         25         26         27         28         29    
[...]
     51       0.119469   0.076865   0.054150   0.100448  -0.028157  -0.129334
     52      -0.185432  -0.047754  -0.126280  -0.154610   0.052537   0.191229
     53      -0.037678  -0.252052   0.088834   0.031133  -0.014267   0.086197
                 42         43         44         45         46         47    
      0      -0.021810   0.051491  -0.014329   0.000073   0.001310  -0.001476
      1      -0.002919   0.008771   0.000517   0.000313   0.000344   0.001193
      2      -0.032217   0.082783  -0.009299   0.002474  -0.001928  -0.002620
      3       0.003073  -0.011913   0.018619   0.003384   0.000152  -0.012187
      4       0.001328  -0.005784   0.019415   0.002375   0.000183  -0.079206
      5       0.015989  -0.012954   0.015480   0.001526  -0.000455  -0.014087
      6       0.027614  -0.003007  -0.504744  -0.097575   0.012757  -0.001340
      7       0.022727  -0.004589  -0.389853  -0.076288   0.010262  -0.002619
      8      -0.034252  -0.037916  -0.302466  -0.065588   0.024321  -0.002991
      9      -0.000892   0.002944   0.062595   0.023016  -0.006928   0.000501
     10       0.011209   0.006008   0.049965   0.013410  -0.009131   0.000999
     11       0.031996   0.027075   0.149772   0.025800  -0.007552   0.001025
     12      -0.001539  -0.005618   0.007908  -0.007087  -0.001492   0.000773
     13       0.002666   0.003950   0.005226  -0.003990   0.000980   0.002298
     14       0.003501   0.002790  -0.008244  -0.005918  -0.001301  -0.000565
     15       0.000690   0.002847   0.004330  -0.041480  -0.001339   0.000349
     16       0.008620   0.004074   0.019492  -0.020095   0.000573   0.000033
     17       0.006693  -0.000300   0.001377   0.007190   0.003377   0.000135
     18       0.043065   0.013438  -0.116301   0.553154   0.017820   0.001177
     19      -0.020462  -0.009497  -0.084102   0.243849  -0.007287  -0.001052
     20      -0.051221  -0.018612   0.006795  -0.134345  -0.013721  -0.000719
     21      -0.041021  -0.012767   0.069685  -0.315924  -0.010243  -0.000263
     22      -0.012878  -0.003338   0.042720  -0.164212  -0.001485   0.000142
     23       0.015431   0.005211  -0.011468   0.070768   0.005354   0.000118
     24      -0.016192  -0.004637   0.031804  -0.063268   0.059124  -0.000503
     25       0.045457   0.016007   0.024582  -0.020454   0.030455   0.000827
     26       0.045651   0.016906   0.019503   0.004696   0.016979  -0.000387
     27      -0.018886   0.000943   0.284134   0.052335  -0.006857   0.000785
     28      -0.018021   0.002693   0.218227   0.041225  -0.004706   0.000587
     29       0.000738   0.002373   0.070919   0.014345  -0.005129   0.000554
     30       0.019137  -0.002515   0.105008  -0.005642  -0.003093   0.177810
     31      -0.002504  -0.000048   0.002497  -0.002632  -0.003865   0.953908
     32       0.018731  -0.037177  -0.161785  -0.052772  -0.000538   0.223001
     33       0.004774   0.017557   0.008179   0.037987   0.002810  -0.008831
     34      -0.030616  -0.013453   0.008301   0.029298  -0.005634  -0.008706
     35      -0.012944   0.014652  -0.013837   0.031638   0.004403   0.017968
     36       0.006995   0.000694  -0.052926  -0.004963   0.003500  -0.011939
     37       0.009592   0.005539   0.012661  -0.018906  -0.002322  -0.031341
     38      -0.037546  -0.007441   0.028421   0.033347   0.003873  -0.008959
     39       0.002402   0.007300  -0.037099   0.106221   0.007933  -0.000117
     40       0.015416  -0.002437  -0.067701   0.141704   0.014621   0.001549
     41       0.003763   0.024805   0.027957   0.072909   0.001738   0.002148
     42      -0.015843  -0.002921   0.089028  -0.039559  -0.010876   0.001088
     43      -0.027641  -0.023186  -0.046767  -0.177839   0.013248   0.001304
     44      -0.025923  -0.020172   0.035925  -0.105441  -0.015381  -0.002755
     45      -0.006794   0.008896   0.002399   0.003121   0.003104  -0.007802
     46       0.037207  -0.091395  -0.029894  -0.001785  -0.005126  -0.003863
     47       0.237881  -0.659010   0.232438   0.034866   0.005198  -0.001542
     48       0.223235  -0.609564   0.188968   0.029513  -0.005734   0.002217
     49       0.004189  -0.015390   0.002517   0.001482   0.003908  -0.001567
     50       0.095612  -0.260753   0.095659   0.017362  -0.001323  -0.007080
     51       0.422490   0.130243  -0.186083  -0.195262  -0.905353  -0.006374
     52      -0.551338  -0.179547  -0.092139   0.350287  -0.315931  -0.008687
     53      -0.614459  -0.225442  -0.325432   0.447750  -0.270019   0.010022
                 48         49         50         51         52         53    
      0      -0.000052   0.000050   0.000001  -0.000115  -0.026754   0.073139
      1       0.000352  -0.000050  -0.000739   0.000111  -0.005016  -0.003350
      2       0.000317   0.000073  -0.000077   0.000051  -0.044126  -0.046286
      3       0.000200  -0.000313   0.000923   0.000308   0.001056   0.001104
      4      -0.001352   0.000928   0.004478  -0.000244   0.000300   0.000092
      5      -0.002111   0.000166   0.000392   0.000178   0.000859  -0.000119
      6      -0.000911  -0.000595  -0.000336   0.000031  -0.000219  -0.000313
      7      -0.000862  -0.000430  -0.000041  -0.000115  -0.000450  -0.000249
      8       0.000806  -0.000768   0.000510  -0.000402   0.000549   0.000350
      9       0.000067  -0.000022  -0.000072  -0.000095  -0.000088  -0.000006
     10       0.000043   0.000046   0.000113  -0.000088  -0.000071   0.000087
     11      -0.000185   0.000449  -0.000132   0.000293  -0.000255  -0.000128
     12       0.014113   0.003764   0.042878  -0.003629   0.000126  -0.000181
     13      -0.025029   0.005156   0.082544  -0.004835  -0.000525   0.000019
     14      -0.054463  -0.003555  -0.030874   0.004462   0.000194   0.000301
     15      -0.002600   0.006807  -0.006004  -0.081325   0.000021  -0.000039
     16       0.001339  -0.052856   0.005354   0.010005   0.000058  -0.000043
     17       0.000357   0.034355   0.000959   0.053733   0.000103  -0.000062
     18       0.000493   0.000550  -0.000364  -0.002929  -0.000016   0.000034
     19       0.000929   0.000532  -0.000103  -0.001188   0.000004  -0.000007
     20       0.000253   0.000757  -0.000327   0.000952  -0.000013  -0.000011
     21      -0.000311  -0.000058  -0.000013   0.001087  -0.000003  -0.000000
     22      -0.000282   0.000025  -0.000209   0.000424   0.000027  -0.000026
     23       0.000054   0.000059  -0.000044  -0.000203  -0.000007   0.000010
     24      -0.000177  -0.000632  -0.000127  -0.000011  -0.000165  -0.000077
     25      -0.000194  -0.000181  -0.000038  -0.000136  -0.000084  -0.000031
     26      -0.000070  -0.000187  -0.000136  -0.000401   0.000023  -0.000017
     27       0.000448   0.000273  -0.000084   0.000058  -0.000091   0.000205
     28       0.000350   0.000165  -0.000003  -0.000095   0.000097   0.000028
     29      -0.000024   0.000135   0.000117   0.000044   0.000130  -0.000082
     30       0.002603  -0.001257  -0.006199   0.000435   0.004027   0.001454
     31       0.005277  -0.005405  -0.036879   0.001988   0.007603  -0.000358
     32       0.002887  -0.001165  -0.006367   0.000603   0.006039  -0.001134
     33      -0.353088  -0.035033  -0.322817   0.031236  -0.001477  -0.000808
     34      -0.338041  -0.028897  -0.300851   0.032177   0.001379   0.001588
     35       0.544622   0.052123   0.499694  -0.054198  -0.000237  -0.001901
     36       0.181357  -0.008367  -0.190306   0.008336  -0.000260  -0.000413
     37       0.642581  -0.039203  -0.691940   0.026862   0.002275   0.000040
     38       0.114757  -0.007718  -0.134259   0.002897   0.000056  -0.000310
     39       0.032023  -0.500123   0.086647   0.672829   0.000019  -0.000055
     40      -0.019236   0.276777  -0.050343  -0.369665  -0.000080  -0.000026
     41      -0.012991   0.159135  -0.027540  -0.217249  -0.000157   0.000188
     42      -0.001429   0.420522  -0.011186   0.306986   0.000443   0.000125
     43       0.001933   0.349008  -0.010253   0.262196  -0.000029  -0.000064
     44       0.000149  -0.581941   0.018903  -0.430068  -0.000272   0.000053
     45      -0.002093  -0.000089   0.000806  -0.000432   0.690241  -0.718759
     46       0.001034   0.000076  -0.000432   0.000048   0.006585  -0.008890
     47       0.002089   0.000271   0.000273  -0.000079  -0.047307   0.030075
     48       0.004356   0.000319   0.001935  -0.000188  -0.330674  -0.308389
     49      -0.001211   0.000189   0.002012   0.000033   0.057659   0.054809
     50       0.002788   0.000131   0.003582  -0.000482   0.637015   0.613821
     51       0.001969   0.008606   0.003770   0.009055   0.003418   0.001381
     52       0.001674   0.003397   0.002120   0.000004   0.002120   0.000774
     53       0.002108   0.002066  -0.000519   0.000005  -0.000391   0.000372


-----------
IR SPECTRUM
-----------

 Mode    freq (cm**-1)   T**2         TX         TY         TZ
-------------------------------------------------------------------
   8:        60.47    4.563132  (  0.256367  -1.951701   0.829622)
   9:        99.19    2.371439  (  0.780820   0.051091  -1.326329)
  10:       119.87   12.953208  ( -2.560979  -2.116312  -1.384131)
  11:       191.34    5.254992  ( -0.865450  -1.744815  -1.208970)
  12:       214.44   41.898900  (  6.158885   1.991719  -0.009494)
  13:       243.60    3.089796  (  1.430374  -0.976030   0.301980)
  14:       331.06    4.647342  (  1.772747   1.114274   0.512937)
  15:       335.00    3.855449  (  1.860723   0.165048  -0.604913)
  16:       397.56    5.105749  ( -1.364880  -1.616897   0.792777)
  17:       467.02    4.121358  (  1.071114   0.956436   1.435027)
  18:       537.30   11.204177  ( -3.237640  -0.832872   0.167892)
  19:       590.16    9.324183  (  2.949441  -0.785909   0.085591)
  20:       635.42    8.658440  ( -1.958753  -2.084915   0.689099)
  21:       719.11    6.702563  (  0.157816  -2.536776   0.492364)
  22:       752.80   19.856428  (  3.959745   1.268762  -1.602214)
  23:       795.44    4.941620  (  1.035123   0.916500  -1.740738)
  24:       834.94    2.433277  ( -1.289276   0.844557  -0.240351)
  25:       858.11   29.673646  (  3.444463   0.626547  -4.173339)
  26:       938.54   52.758656  (  6.096731   3.548219  -1.731665)
  27:       962.90   98.629485  (  7.267113   6.042803  -3.050097)
  28:       993.19   17.858323  ( -3.782336  -0.995414   1.600441)
  29:      1035.38    3.457586  ( -1.771806   0.491095   0.277695)
  30:      1088.85   13.194658  ( -1.034830  -3.148362  -1.487146)
  31:      1132.42   18.478795  (  0.699206   2.929669   3.067074)
  32:      1161.56   20.673624  (  2.486186   1.555445   3.474636)
  33:      1188.97   26.456344  ( -4.557347   1.202703  -2.059233)
  34:      1243.32   18.058281  (  2.056393  -3.717667  -0.092070)
  35:      1262.45   15.986223  (  2.863017  -0.868451  -2.652385)
  36:      1283.58   69.853241  (  0.131995   1.820595   8.156056)
  37:      1304.58   33.173529  ( -0.123545   3.876644   4.257922)
  38:      1324.47   49.386979  (  2.684633  -3.468146   5.491055)
  39:      1344.15   37.453463  (  1.147016  -3.977076   4.507847)
  40:      1352.82   11.518873  (  2.897732  -1.131601  -1.357019)
  41:      1376.36   30.791557  (  3.227734  -1.140425  -4.367232)
  42:      1483.56  236.427466  ( 13.396521  -2.807249  -7.005716)
  43:      1497.06  124.502651  ( -1.329082  -2.798558 -10.719341)
  44:      1704.49  737.469498  (-22.486798 -12.775683  -8.282230)
  45:      1774.60  229.381035  ( 13.697904   5.954689  -2.508013)
  46:      2470.53  1431.230456  (-34.610939 -14.251950  -5.495025)
  47:      2804.13  108.337841  ( -3.197032  -8.527458  -5.039770)
  48:      2939.02   48.008881  (  1.805052  -2.180785  -6.324148)
  49:      2985.01   27.743996  (  4.644713  -2.439025   0.470953)
  50:      3048.93   30.422420  (  1.760210   4.734011  -2.216579)
  51:      3103.63    8.393128  ( -2.462979   0.943721   1.198438)
  52:      3551.47    8.851877  (  2.329019   1.004439  -1.555201)
  53:      3688.46   12.450449  ( -3.425952  -0.011271   0.844496)

The first frequency considered to be a vibration is 8
The total number of vibrations considered is 46


--------------------------
THERMOCHEMISTRY AT 298.15K
--------------------------

Temperature         ... 298.15 K
Pressure            ... 1.00 atm
Total Mass          ... 146.12 AMU

Throughout the following assumptions are being made:
  (1) The electronic state is orbitally nondegenerate
  (2) There are no thermally accessible electronically excited states
  (3) Hindered rotations indicated by low frequency modes are not
      treated as such but are treated as vibrations and this may
      cause some error
  (4) All equations used are the standard statistical mechanics
      equations for an ideal gas
  (5) All vibrations are strictly harmonic

freq.      60.47  E(vib)   ...       0.51 
freq.      99.19  E(vib)   ...       0.46 
freq.     119.87  E(vib)   ...       0.44 
freq.     191.34  E(vib)   ...       0.36 
freq.     214.44  E(vib)   ...       0.34 
freq.     243.60  E(vib)   ...       0.31 
freq.     331.06  E(vib)   ...       0.24 
freq.     335.00  E(vib)   ...       0.24 
freq.     397.56  E(vib)   ...       0.20 
freq.     467.02  E(vib)   ...       0.16 
freq.     537.30  E(vib)   ...       0.12 
freq.     590.16  E(vib)   ...       0.10 
freq.     635.42  E(vib)   ...       0.09 
freq.     719.11  E(vib)   ...       0.07 
freq.     752.80  E(vib)   ...       0.06 
freq.     795.44  E(vib)   ...       0.05 
freq.     834.94  E(vib)   ...       0.04 
freq.     858.11  E(vib)   ...       0.04 
freq.     938.54  E(vib)   ...       0.03 
freq.     962.90  E(vib)   ...       0.03 
freq.     993.19  E(vib)   ...       0.02 
freq.    1035.38  E(vib)   ...       0.02 
freq.    1088.85  E(vib)   ...       0.02 
freq.    1132.42  E(vib)   ...       0.01 
freq.    1161.56  E(vib)   ...       0.01 
freq.    1188.97  E(vib)   ...       0.01 
freq.    1243.32  E(vib)   ...       0.01 
freq.    1262.45  E(vib)   ...       0.01 
freq.    1283.58  E(vib)   ...       0.01 
freq.    1304.58  E(vib)   ...       0.01 
freq.    1324.47  E(vib)   ...       0.01 
freq.    1344.15  E(vib)   ...       0.01 
freq.    1352.82  E(vib)   ...       0.01 
freq.    1376.36  E(vib)   ...       0.01 
freq.    1483.56  E(vib)   ...       0.00 
freq.    1497.06  E(vib)   ...       0.00 
freq.    1704.49  E(vib)   ...       0.00 
freq.    1774.60  E(vib)   ...       0.00 
freq.    2470.53  E(vib)   ...       0.00 
freq.    2804.13  E(vib)   ...       0.00 
freq.    2939.02  E(vib)   ...       0.00 
freq.    2985.01  E(vib)   ...       0.00 
freq.    3048.93  E(vib)   ...       0.00 
freq.    3103.63  E(vib)   ...       0.00 
freq.    3551.47  E(vib)   ...       0.00 
freq.    3688.46  E(vib)   ...       0.00 

------------
INNER ENERGY
------------

The inner energy is: U= E(el) + E(ZPE) + E(vib) + E(rot) + E(trans)
    E(el)   - is the total energy from the electronic structure calculation
              = E(kin-el) + E(nuc-el) + E(el-el) + E(nuc-nuc)
    E(ZPE)  - the the zero temperature vibrational energy from the frequency calculation
    E(vib)  - the the finite temperature correction to E(ZPE) due to population
              of excited vibrational states
    E(rot)  - is the rotational thermal energy
    E(trans)- is the translational thermal energy

Summary of contributions to the inner energy U:
Electronic energy                ...   -550.07807320 Eh
Zero point energy                ...      0.13265144 Eh      83.24 kcal/mol
Thermal vibrational correction   ...      0.00643759 Eh       4.04 kcal/mol
Thermal rotational correction    ...      0.00141627 Eh       0.89 kcal/mol
Thermal translational correction ...      0.00141627 Eh       0.89 kcal/mol
-----------------------------------------------------------------------
Total thermal energy                   -549.93615163 Eh


Summary of corrections to the electronic energy:
(perhaps to be used in another calculation)
Total thermal correction                  0.00927013 Eh       5.82 kcal/mol
Non-thermal (ZPE) correction              0.13265144 Eh      83.24 kcal/mol
-----------------------------------------------------------------------
Total correction                          0.14192157 Eh      89.06 kcal/mol


--------
ENTHALPY
--------

The enthalpy is H = U + kB*T
                kB is Boltzmann's constant
Total free energy                 ...   -549.93615163 Eh 
Thermal Enthalpy correction       ...      0.00094421 Eh       0.59 kcal/mol
-----------------------------------------------------------------------
Total Enthalpy                    ...   -549.93520742 Eh


Note: Only C1 symmetry has been detected, increase convergence thresholds 
      if your molecule has a higher symmetry. Symmetry factor of 1.0 is   
      used for the rotational entropy correction. 
 

Note: Rotational entropy computed according to Herzberg 
Infrared and Raman Spectra, Chapter V,1, Van Nostrand Reinhold, 1945 
Point Group:  C1, Symmetry Number:   1  
Rotational constants in cm-1:     0.077073     0.029591     0.024687 

Vibrational entropy computed according to the QRRHO of S. Grimme
Chem.Eur.J. 2012 18 9955


-------
ENTROPY
-------

The entropy contributions are T*S = T*(S(el)+S(vib)+S(rot)+S(trans))
     S(el)   - electronic entropy
     S(vib)  - vibrational entropy
     S(rot)  - rotational entropy
     S(trans)- translational entropy
The entropies will be listed as mutliplied by the temperature to get
units of energy

Electronic entropy                ...      0.00000000 Eh      0.00 kcal/mol
Vibrational entropy               ...      0.01103183 Eh      6.92 kcal/mol
Rotational entropy                ...      0.01413010 Eh      8.87 kcal/mol
Translational entropy             ...      0.01940839 Eh     12.18 kcal/mol
-----------------------------------------------------------------------
Final entropy term                ...      0.04457032 Eh     27.97 kcal/mol

In case the symmetry of your molecule has not been determined correctly
or in case you have a reason to use a different symmetry number we print 
out the resulting rotational entropy values for sn=1,12 :
 --------------------------------------------------------
|  sn= 1 | S(rot)=       0.01413010 Eh      8.87 kcal/mol|
|  sn= 2 | S(rot)=       0.01347565 Eh      8.46 kcal/mol|
|  sn= 3 | S(rot)=       0.01309281 Eh      8.22 kcal/mol|
|  sn= 4 | S(rot)=       0.01282119 Eh      8.05 kcal/mol|
|  sn= 5 | S(rot)=       0.01261050 Eh      7.91 kcal/mol|
|  sn= 6 | S(rot)=       0.01243836 Eh      7.81 kcal/mol|
|  sn= 7 | S(rot)=       0.01229281 Eh      7.71 kcal/mol|
|  sn= 8 | S(rot)=       0.01216673 Eh      7.63 kcal/mol|
|  sn= 9 | S(rot)=       0.01205552 Eh      7.56 kcal/mol|
|  sn=10 | S(rot)=       0.01195604 Eh      7.50 kcal/mol|
|  sn=11 | S(rot)=       0.01186605 Eh      7.45 kcal/mol|
|  sn=12 | S(rot)=       0.01178390 Eh      7.39 kcal/mol|
 --------------------------------------------------------


-------------------
GIBBS FREE ENERGY
-------------------

The Gibbs free energy is G = H - T*S

Total enthalpy                    ...   -549.93520742 Eh 
Total entropy correction          ...     -0.04457032 Eh    -27.97 kcal/mol
-----------------------------------------------------------------------
Final Gibbs free energy         ...   -549.97977774 Eh

For completeness - the Gibbs free energy minus the electronic energy
G-E(el)                           ...      0.09829546 Eh     61.68 kcal/mol


Timings for individual modules:

Sum of individual times         ...       88.652 sec (=   1.478 min)
GTO integral calculation        ...        4.225 sec (=   0.070 min)   4.8 %
SCF iterations                  ...        6.611 sec (=   0.110 min)   7.5 %
Analytical frequency calculation...       77.816 sec (=   1.297 min)  87.8 %
                             ****ORCA TERMINATED NORMALLY****
TOTAL RUN TIME: 0 days 0 hours 1 minutes 31 seconds 521 msec
